                               Psi4 1.2.1 release

  ==> Input File <==

--------------------------------------------------------------------------
memory 12 gb
molecule meoh {
noreorient
nocom
0 1
H    -4.6040    -0.4820     1.6820
C    -3.9980     0.3660     1.3950
H    -3.5820     0.8300     2.2810
H    -4.6430     1.0820     0.8960
C    -2.9490    -0.0970     0.4100
O    -3.2320    -0.8190    -0.5140
N    -1.6970     0.3630     0.6110
H    -1.5010     0.8980     1.4260
C    -0.5880     0.0730    -0.2890
H    -1.0070    -0.0170    -1.2820
C     0.4340     1.2050    -0.2470
H    -0.0970     2.1470    -0.3550
H     0.9000     1.2040     0.7310
C     1.4940     1.0870    -1.3490
H     1.8670     0.0710    -1.3990
H     1.0230     1.2880    -2.3080
C     2.6860     2.0350    -1.1780
H     3.3260     1.9320    -2.0490
H     2.3370     3.0660    -1.1590
C     3.5380     1.7800     0.0680
H     4.4020     2.4350     0.0230
H     2.9850     2.0670     0.9640
N     4.0190     0.4070     0.1110
H     4.7280     0.3090     0.8110
H     3.2790    -0.2230     0.3600
C     0.0450    -1.2710     0.1080
O     1.0550    -1.3320     0.7650
N    -0.6200    -2.3550    -0.3200
H    -1.5260    -2.2150    -0.7140
C    -0.2230    -3.6890     0.0730
H    -0.7860    -4.4030    -0.5120
H     0.8310    -3.8310    -0.1160
H    -0.4080    -3.8730     1.1260
}
set {
basis 6-31g*
}
E,wfn = prop('HF' , properties = ['GRID_ESP', 'GRID_FIELD'], return_wfn=True)
--------------------------------------------------------------------------

    Molecular point group: c1

    Geometry (in Angstrom), charge = 0, multiplicity = 1:

       Center              X                  Y                   Z               Mass
    ------------   -----------------  -----------------  -----------------  -----------------
         H           -4.604000000000    -0.482000000000     1.682000000000     1.007825032070
         C           -3.998000000000     0.366000000000     1.395000000000    12.000000000000
         H           -3.582000000000     0.830000000000     2.281000000000     1.007825032070
         H           -4.643000000000     1.082000000000     0.896000000000     1.007825032070
         C           -2.949000000000    -0.097000000000     0.410000000000    12.000000000000
         O           -3.232000000000    -0.819000000000    -0.514000000000    15.994914619560
         N           -1.697000000000     0.363000000000     0.611000000000    14.003074004780
         H           -1.501000000000     0.898000000000     1.426000000000     1.007825032070
         C           -0.588000000000     0.073000000000    -0.289000000000    12.000000000000
         H           -1.007000000000    -0.017000000000    -1.282000000000     1.007825032070
         C            0.434000000000     1.205000000000    -0.247000000000    12.000000000000
         H           -0.097000000000     2.147000000000    -0.355000000000     1.007825032070
         H            0.900000000000     1.204000000000     0.731000000000     1.007825032070
         C            1.494000000000     1.087000000000    -1.349000000000    12.000000000000
         H            1.867000000000     0.071000000000    -1.399000000000     1.007825032070
         H            1.023000000000     1.288000000000    -2.308000000000     1.007825032070
         C            2.686000000000     2.035000000000    -1.178000000000    12.000000000000
         H            3.326000000000     1.932000000000    -2.049000000000     1.007825032070
         H            2.337000000000     3.066000000000    -1.159000000000     1.007825032070
         C            3.538000000000     1.780000000000     0.068000000000    12.000000000000
         H            4.402000000000     2.435000000000     0.023000000000     1.007825032070
         H            2.985000000000     2.067000000000     0.964000000000     1.007825032070
         N            4.019000000000     0.407000000000     0.111000000000    14.003074004780
         H            4.728000000000     0.309000000000     0.811000000000     1.007825032070
         H            3.279000000000    -0.223000000000     0.360000000000     1.007825032070
         C            0.045000000000    -1.271000000000     0.108000000000    12.000000000000
         O            1.055000000000    -1.332000000000     0.765000000000    15.994914619560
         N           -0.620000000000    -2.355000000000    -0.320000000000    14.003074004780
         H           -1.526000000000    -2.215000000000    -0.714000000000     1.007825032070
         C           -0.223000000000    -3.689000000000     0.073000000000    12.000000000000
         H           -0.786000000000    -4.403000000000    -0.512000000000     1.007825032070
         H            0.831000000000    -3.831000000000    -0.116000000000     1.007825032070
         H           -0.408000000000    -3.873000000000     1.126000000000     1.007825032070

  Charge       = 0
  Multiplicity = 1
  Basis Set: 6-31G*
    Blend: 6-31G*
  Basis Set: (6-31G* AUX)
    Blend: CC-PVDZ-JKFIT

    Orbital Energies [Eh]
    ---------------------

    Doubly Occupied:

       1A    -20.535673     2A    -20.524355     3A    -15.601773
       4A    -15.576845     5A    -15.516710     6A    -11.363751
       7A    -11.342142     8A    -11.280186     9A    -11.251893
      10A    -11.243887    11A    -11.233246    12A    -11.226633
      13A    -11.214751    14A    -11.208740    15A     -1.405355
      16A     -1.389067    17A     -1.252957    18A     -1.226539
      19A     -1.164868    20A     -1.083155    21A     -1.031696
      22A     -0.992629    23A     -0.961051    24A     -0.907813
      25A     -0.848961    26A     -0.812132    27A     -0.782731
      28A     -0.766099    29A     -0.729636    30A     -0.690446
      31A     -0.677039    32A     -0.662605    33A     -0.647587
      34A     -0.628745    35A     -0.624275    36A     -0.618730
      37A     -0.609421    38A     -0.594810    39A     -0.578186
      40A     -0.571008    41A     -0.566033    42A     -0.548804
      43A     -0.543759    44A     -0.530418    45A     -0.521660
      46A     -0.518925    47A     -0.501827    48A     -0.470850
      49A     -0.465342    50A     -0.457763    51A     -0.442694
      52A     -0.429637    53A     -0.389323    54A     -0.383739
      55A     -0.367913

  @DF-RHF Final Energy:  -664.98380473366535

   => Energetics <=

    Nuclear Repulsion Energy =            964.1095678438952064
    One-Electron Energy =               -2821.1530885474476236
    Two-Electron Energy =                1192.0597159698872929
    Total Energy =                       -664.9838047336652380

  Dipole Moment: [D]
     X:    -2.5773      Y:     1.7703      Z:     2.2618     Total:     3.8590

*** Psi4 exiting successfully. Buy a developer a beer!
