                               Psi4 1.2.1 release

  ==> Input File <==

--------------------------------------------------------------------------
memory 12 gb
molecule meoh {
noreorient
nocom
0 1
H     2.9950     1.3590     1.0850
C     3.0320     0.2810     0.9760
H     3.4780    -0.1550     1.8560
H     3.6480     0.0560     0.1120
C     1.6420    -0.2960     0.8170
O     1.2190    -1.1190     1.5960
N     0.9030     0.1540    -0.2200
C     1.3800     1.0510    -1.2760
H     2.2400     0.6200    -1.7810
H     1.6750     2.0110    -0.8720
C     0.1850     1.1580    -2.2250
H     0.4990     1.3400    -3.2460
H    -0.4680     1.9650    -1.9190
C    -0.5350    -0.1790    -2.0440
H    -0.0260    -0.9610    -2.5990
H    -1.5680    -0.1450    -2.3560
C    -0.3930    -0.4560    -0.5470
H    -0.3520    -1.5120    -0.3210
C    -1.5270     0.1810     0.2720
O    -2.3100     0.9540    -0.2180
N    -1.5790    -0.2030     1.5570
H    -0.8190    -0.7410     1.9130
C    -2.5330     0.3780     2.4750
H    -3.5370     0.2820     2.0840
H    -2.4700    -0.1510     3.4160
H    -2.3370     1.4310     2.6490
}
set {
basis 6-31g*
}
E,wfn = prop('HF' , properties = ['GRID_ESP', 'GRID_FIELD'], return_wfn=True)
--------------------------------------------------------------------------

    Molecular point group: c1

    Geometry (in Angstrom), charge = 0, multiplicity = 1:

       Center              X                  Y                   Z               Mass
    ------------   -----------------  -----------------  -----------------  -----------------
         H            2.995000000000     1.359000000000     1.085000000000     1.007825032070
         C            3.032000000000     0.281000000000     0.976000000000    12.000000000000
         H            3.478000000000    -0.155000000000     1.856000000000     1.007825032070
         H            3.648000000000     0.056000000000     0.112000000000     1.007825032070
         C            1.642000000000    -0.296000000000     0.817000000000    12.000000000000
         O            1.219000000000    -1.119000000000     1.596000000000    15.994914619560
         N            0.903000000000     0.154000000000    -0.220000000000    14.003074004780
         C            1.380000000000     1.051000000000    -1.276000000000    12.000000000000
         H            2.240000000000     0.620000000000    -1.781000000000     1.007825032070
         H            1.675000000000     2.011000000000    -0.872000000000     1.007825032070
         C            0.185000000000     1.158000000000    -2.225000000000    12.000000000000
         H            0.499000000000     1.340000000000    -3.246000000000     1.007825032070
         H           -0.468000000000     1.965000000000    -1.919000000000     1.007825032070
         C           -0.535000000000    -0.179000000000    -2.044000000000    12.000000000000
         H           -0.026000000000    -0.961000000000    -2.599000000000     1.007825032070
         H           -1.568000000000    -0.145000000000    -2.356000000000     1.007825032070
         C           -0.393000000000    -0.456000000000    -0.547000000000    12.000000000000
         H           -0.352000000000    -1.512000000000    -0.321000000000     1.007825032070
         C           -1.527000000000     0.181000000000     0.272000000000    12.000000000000
         O           -2.310000000000     0.954000000000    -0.218000000000    15.994914619560
         N           -1.579000000000    -0.203000000000     1.557000000000    14.003074004780
         H           -0.819000000000    -0.741000000000     1.913000000000     1.007825032070
         C           -2.533000000000     0.378000000000     2.475000000000    12.000000000000
         H           -3.537000000000     0.282000000000     2.084000000000     1.007825032070
         H           -2.470000000000    -0.151000000000     3.416000000000     1.007825032070
         H           -2.337000000000     1.431000000000     2.649000000000     1.007825032070

  Charge       = 0
  Multiplicity = 1
  Basis Set: 6-31G*
    Blend: 6-31G*
  Basis Set: (6-31G* AUX)
    Blend: CC-PVDZ-JKFIT

    Orbital Energies [Eh]
    ---------------------

    Doubly Occupied:

       1A    -20.531355     2A    -20.515286     3A    -15.595923
       4A    -15.567012     5A    -11.356596     6A    -11.333707
       7A    -11.274618     8A    -11.273987     9A    -11.246224
      10A    -11.237822    11A    -11.229600    12A    -11.227778
      13A     -1.399838    14A     -1.381179    15A     -1.267830
      16A     -1.219097    17A     -1.081889    18A     -1.030578
      19A     -0.998302    20A     -0.948027    21A     -0.879136
      22A     -0.821823    23A     -0.784499    24A     -0.758220
      25A     -0.719067    26A     -0.691894    27A     -0.654894
      28A     -0.643409    29A     -0.635772    30A     -0.616496
      31A     -0.610211    32A     -0.591124    33A     -0.589053
      34A     -0.569166    35A     -0.560417    36A     -0.548152
      37A     -0.540754    38A     -0.520910    39A     -0.515037
      40A     -0.500047    41A     -0.492182    42A     -0.487300
      43A     -0.427101    44A     -0.422888    45A     -0.376575
      46A     -0.369478

  @DF-RHF Final Energy:  -569.76218917883773

   => Energetics <=

    Nuclear Repulsion Energy =            767.3659829347183177
    One-Electron Energy =               -2300.1718205633069374
    Two-Electron Energy =                 963.0436484497507763
    Total Energy =                       -569.7621891788377297

  Dipole Moment: [D]
     X:     3.1339      Y:     0.5041      Z:    -1.0700     Total:     3.3497

*** Psi4 exiting successfully. Buy a developer a beer!
