                               Psi4 1.2.1 release

  ==> Input File <==

--------------------------------------------------------------------------
memory 12 gb
molecule meoh {
noreorient
nocom
-1 1
H     3.4950    -2.0940    -0.3430
C     3.0760    -1.1070    -0.4830
H     3.0360    -0.8660    -1.5390
H     3.7200    -0.3760    -0.0030
C     1.7010    -1.0480     0.1560
O     1.3410    -1.8770     0.9520
N     0.9350    -0.0140    -0.2570
H     1.4130     0.7640    -0.6800
C    -0.1900     0.4620     0.5320
H     0.0920     0.5490     1.5730
C    -0.6120     1.8550    -0.0000
H    -1.1240     1.7080    -0.9480
H    -1.3460     2.2410     0.6980
S     0.7800     3.0240    -0.2100
C    -1.3860    -0.4790     0.4950
O    -2.1900    -0.5120     1.3920
N    -1.5470    -1.2020    -0.6400
H    -0.7650    -1.2530    -1.2490
C    -2.5770    -2.2020    -0.7410
H    -3.5310    -1.7780    -0.4580
H    -2.6380    -2.5430    -1.7680
H    -2.3850    -3.0580    -0.0990
}
set {
basis 6-31g*
}
E,wfn = prop('HF' , properties = ['GRID_ESP', 'GRID_FIELD'], return_wfn=True)
--------------------------------------------------------------------------

    Molecular point group: c1

    Geometry (in Angstrom), charge = -1, multiplicity = 1:

       Center              X                  Y                   Z               Mass
    ------------   -----------------  -----------------  -----------------  -----------------
         H            3.495000000000    -2.094000000000    -0.343000000000     1.007825032070
         C            3.076000000000    -1.107000000000    -0.483000000000    12.000000000000
         H            3.036000000000    -0.866000000000    -1.539000000000     1.007825032070
         H            3.720000000000    -0.376000000000    -0.003000000000     1.007825032070
         C            1.701000000000    -1.048000000000     0.156000000000    12.000000000000
         O            1.341000000000    -1.877000000000     0.952000000000    15.994914619560
         N            0.935000000000    -0.014000000000    -0.257000000000    14.003074004780
         H            1.413000000000     0.764000000000    -0.680000000000     1.007825032070
         C           -0.190000000000     0.462000000000     0.532000000000    12.000000000000
         H            0.092000000000     0.549000000000     1.573000000000     1.007825032070
         C           -0.612000000000     1.855000000000     0.000000000000    12.000000000000
         H           -1.124000000000     1.708000000000    -0.948000000000     1.007825032070
         H           -1.346000000000     2.241000000000     0.698000000000     1.007825032070
         S            0.780000000000     3.024000000000    -0.210000000000    31.972070999000
         C           -1.386000000000    -0.479000000000     0.495000000000    12.000000000000
         O           -2.190000000000    -0.512000000000     1.392000000000    15.994914619560
         N           -1.547000000000    -1.202000000000    -0.640000000000    14.003074004780
         H           -0.765000000000    -1.253000000000    -1.249000000000     1.007825032070
         C           -2.577000000000    -2.202000000000    -0.741000000000    12.000000000000
         H           -3.531000000000    -1.778000000000    -0.458000000000     1.007825032070
         H           -2.638000000000    -2.543000000000    -1.768000000000     1.007825032070
         H           -2.385000000000    -3.058000000000    -0.099000000000     1.007825032070

  Charge       = -1
  Multiplicity = 1
  Basis Set: 6-31G*
    Blend: 6-31G*
  Basis Set: (6-31G* AUX)
    Blend: CC-PVDZ-JKFIT

    Orbital Energies [Eh]
    ---------------------

    Doubly Occupied:

       1A    -91.672495     2A    -20.410243     3A    -20.393862
       4A    -15.458334     5A    -15.445961     6A    -11.230410
       7A    -11.212371     8A    -11.152693     9A    -11.128647
      10A    -11.126591    11A    -11.083224    12A     -8.680311
      13A     -6.364078    14A     -6.361013    15A     -6.360716
      16A     -1.274679    17A     -1.259871    18A     -1.118272
      19A     -1.098198    20A     -0.922610    21A     -0.871012
      22A     -0.840555    23A     -0.752092    24A     -0.673050
      25A     -0.657322    26A     -0.605136    27A     -0.572890
      28A     -0.565043    29A     -0.548972    30A     -0.511787
      31A     -0.506267    32A     -0.499995    33A     -0.467277
      34A     -0.460061    35A     -0.449830    36A     -0.438891
      37A     -0.416297    38A     -0.410555    39A     -0.387745
      40A     -0.356563    41A     -0.308624    42A     -0.302686
      43A     -0.270716    44A     -0.268127    45A     -0.244482
      46A     -0.114981    47A     -0.109445

  @DF-RHF Final Energy:  -889.80933265010572

   => Energetics <=

    Nuclear Repulsion Energy =            723.6016483471928495
    One-Electron Energy =               -2674.0918037830024332
    Two-Electron Energy =                1060.6808227857038673
    Total Energy =                       -889.8093326501057163

  Dipole Moment: [D]
     X:    -0.0708      Y:    -8.9074      Z:    -3.9524     Total:     9.7452

*** Psi4 exiting successfully. Buy a developer a beer!
