                               Psi4 1.2.1 release

  ==> Input File <==

--------------------------------------------------------------------------
memory 12 gb
molecule meoh {
noreorient
nocom
-1 1
H     2.8280    -2.7070    -0.5450
C     3.3340    -1.8180    -0.1810
H     3.8100    -1.3290    -1.0250
H     4.0820    -2.1100     0.5420
C     2.3120    -0.9200     0.4910
O     2.1960    -0.8970     1.6870
N     1.5850    -0.1620    -0.3630
H     1.6110    -0.4600    -1.3130
C     0.3150     0.4330     0.0250
H     0.4010     0.7480     1.0530
C     0.0260     1.6730    -0.8520
H     0.9600     2.2210    -0.8980
H    -0.1800     1.3290    -1.8670
S    -1.3050     2.7800    -0.2570
C    -0.7730    -0.6460    -0.0750
O    -0.5410    -1.7420    -0.5380
N    -1.9810    -0.2920     0.3920
H    -2.1370     0.7010     0.4690
C    -3.1180    -1.1530     0.1910
H    -3.3560    -1.2880    -0.8620
H    -2.9310    -2.1300     0.6180
H    -3.9750    -0.7130     0.6860
}
set {
basis 6-31g*
}
E,wfn = prop('HF' , properties = ['GRID_ESP', 'GRID_FIELD'], return_wfn=True)
--------------------------------------------------------------------------

    Molecular point group: c1

    Geometry (in Angstrom), charge = -1, multiplicity = 1:

       Center              X                  Y                   Z               Mass
    ------------   -----------------  -----------------  -----------------  -----------------
         H            2.828000000000    -2.707000000000    -0.545000000000     1.007825032070
         C            3.334000000000    -1.818000000000    -0.181000000000    12.000000000000
         H            3.810000000000    -1.329000000000    -1.025000000000     1.007825032070
         H            4.082000000000    -2.110000000000     0.542000000000     1.007825032070
         C            2.312000000000    -0.920000000000     0.491000000000    12.000000000000
         O            2.196000000000    -0.897000000000     1.687000000000    15.994914619560
         N            1.585000000000    -0.162000000000    -0.363000000000    14.003074004780
         H            1.611000000000    -0.460000000000    -1.313000000000     1.007825032070
         C            0.315000000000     0.433000000000     0.025000000000    12.000000000000
         H            0.401000000000     0.748000000000     1.053000000000     1.007825032070
         C            0.026000000000     1.673000000000    -0.852000000000    12.000000000000
         H            0.960000000000     2.221000000000    -0.898000000000     1.007825032070
         H           -0.180000000000     1.329000000000    -1.867000000000     1.007825032070
         S           -1.305000000000     2.780000000000    -0.257000000000    31.972070999000
         C           -0.773000000000    -0.646000000000    -0.075000000000    12.000000000000
         O           -0.541000000000    -1.742000000000    -0.538000000000    15.994914619560
         N           -1.981000000000    -0.292000000000     0.392000000000    14.003074004780
         H           -2.137000000000     0.701000000000     0.469000000000     1.007825032070
         C           -3.118000000000    -1.153000000000     0.191000000000    12.000000000000
         H           -3.356000000000    -1.288000000000    -0.862000000000     1.007825032070
         H           -2.931000000000    -2.130000000000     0.618000000000     1.007825032070
         H           -3.975000000000    -0.713000000000     0.686000000000     1.007825032070

  Charge       = -1
  Multiplicity = 1
  Basis Set: 6-31G*
    Blend: 6-31G*
  Basis Set: (6-31G* AUX)
    Blend: CC-PVDZ-JKFIT

    Orbital Energies [Eh]
    ---------------------

    Doubly Occupied:

       1A    -91.673694     2A    -20.407041     3A    -20.391809
       4A    -15.454485     5A    -15.434608     6A    -11.231527
       7A    -11.205543     8A    -11.135795     9A    -11.129398
      10A    -11.129209    11A    -11.086309    12A     -8.681839
      13A     -6.365604    14A     -6.362543    15A     -6.362233
      16A     -1.273553    17A     -1.253735    18A     -1.111049
      19A     -1.092973    20A     -0.923309    21A     -0.874221
      22A     -0.824758    23A     -0.751432    24A     -0.669573
      25A     -0.639581    26A     -0.614295    27A     -0.592004
      28A     -0.547165    29A     -0.530956    30A     -0.510757
      31A     -0.505330    32A     -0.491233    33A     -0.470199
      34A     -0.462306    35A     -0.437632    36A     -0.430377
      37A     -0.423601    38A     -0.397844    39A     -0.390215
      40A     -0.355715    41A     -0.306646    42A     -0.294171
      43A     -0.275622    44A     -0.255763    45A     -0.248786
      46A     -0.117138    47A     -0.111312

  @DF-RHF Final Energy:  -889.80977834123166

   => Energetics <=

    Nuclear Repulsion Energy =            720.4199074621828913
    One-Electron Energy =               -2667.9896584419889223
    Two-Electron Energy =                1057.7599726385742542
    Total Energy =                       -889.8097783412317767

  Dipole Moment: [D]
     X:     3.1722      Y:    -7.3656      Z:    -1.9156     Total:     8.2453

*** Psi4 exiting successfully. Buy a developer a beer!
