                               Psi4 1.2.1 release

  ==> Input File <==

--------------------------------------------------------------------------
memory 12 gb
molecule meoh {
noreorient
nocom
0 1
H     2.9120    -2.2830    -1.3640
C     2.4950    -1.9590    -0.4220
H     3.2880    -1.8180     0.3030
H     1.8280    -2.7310    -0.0500
C     1.7060    -0.6880    -0.6430
O     1.3290    -0.3430    -1.7280
N     1.4640     0.0410     0.4850
H     1.5480    -0.4390     1.3530
C     0.4870     1.0950     0.4620
H     0.5090     1.5590    -0.5120
H     0.7510     1.8470     1.1980
C    -0.9070     0.5850     0.8140
O    -1.0550    -0.3710     1.5270
N    -1.9310     1.3200     0.3370
H    -1.7430     1.9800    -0.3820
C    -3.3100     0.9520     0.5820
H    -3.4310     0.6820     1.6210
H    -3.6190     0.1110    -0.0300
H    -3.9430     1.8010     0.3620
}
set {
basis 6-31g*
}
E,wfn = prop('HF' , properties = ['GRID_ESP', 'GRID_FIELD'], return_wfn=True)
--------------------------------------------------------------------------

    Molecular point group: c1

    Geometry (in Angstrom), charge = 0, multiplicity = 1:

       Center              X                  Y                   Z               Mass
    ------------   -----------------  -----------------  -----------------  -----------------
         H            2.912000000000    -2.283000000000    -1.364000000000     1.007825032070
         C            2.495000000000    -1.959000000000    -0.422000000000    12.000000000000
         H            3.288000000000    -1.818000000000     0.303000000000     1.007825032070
         H            1.828000000000    -2.731000000000    -0.050000000000     1.007825032070
         C            1.706000000000    -0.688000000000    -0.643000000000    12.000000000000
         O            1.329000000000    -0.343000000000    -1.728000000000    15.994914619560
         N            1.464000000000     0.041000000000     0.485000000000    14.003074004780
         H            1.548000000000    -0.439000000000     1.353000000000     1.007825032070
         C            0.487000000000     1.095000000000     0.462000000000    12.000000000000
         H            0.509000000000     1.559000000000    -0.512000000000     1.007825032070
         H            0.751000000000     1.847000000000     1.198000000000     1.007825032070
         C           -0.907000000000     0.585000000000     0.814000000000    12.000000000000
         O           -1.055000000000    -0.371000000000     1.527000000000    15.994914619560
         N           -1.931000000000     1.320000000000     0.337000000000    14.003074004780
         H           -1.743000000000     1.980000000000    -0.382000000000     1.007825032070
         C           -3.310000000000     0.952000000000     0.582000000000    12.000000000000
         H           -3.431000000000     0.682000000000     1.621000000000     1.007825032070
         H           -3.619000000000     0.111000000000    -0.030000000000     1.007825032070
         H           -3.943000000000     1.801000000000     0.362000000000     1.007825032070

  Charge       = 0
  Multiplicity = 1
  Basis Set: 6-31G*
    Blend: 6-31G*
  Basis Set: (6-31G* AUX)
    Blend: CC-PVDZ-JKFIT

    Orbital Energies [Eh]
    ---------------------

    Doubly Occupied:

       1A    -20.527771     2A    -20.525639     3A    -15.590405
       4A    -15.582845     5A    -11.348144     6A    -11.348084
       7A    -11.273843     8A    -11.260154     9A    -11.229435
      10A     -1.399083    11A     -1.390290    12A     -1.238221
      13A     -1.235310    14A     -1.031399    15A     -0.983568
      16A     -0.927412    17A     -0.800713    18A     -0.784203
      19A     -0.727254    20A     -0.688376    21A     -0.666607
      22A     -0.642462    23A     -0.624593    24A     -0.619747
      25A     -0.590177    26A     -0.588941    27A     -0.568519
      28A     -0.556812    29A     -0.553542    30A     -0.516696
      31A     -0.513808    32A     -0.433960    33A     -0.421814
      34A     -0.398734    35A     -0.387613

  @DF-RHF Final Energy:  -453.82140769141790

   => Energetics <=

    Nuclear Repulsion Energy =            461.0912421806852421
    One-Electron Energy =               -1533.8727684510058680
    Two-Electron Energy =                 618.9601185789027795
    Total Energy =                       -453.8214076914179032

  Dipole Moment: [D]
     X:    -0.2957      Y:     1.8929      Z:     1.1157     Total:     2.2171

*** Psi4 exiting successfully. Buy a developer a beer!
