                               Psi4 1.2.1 release

  ==> Input File <==

--------------------------------------------------------------------------
memory 12 gb
molecule meoh {
noreorient
nocom
0 1
H     2.6440    -1.7330     1.3490
C     2.5110    -0.7590     1.8070
H     3.3900    -0.1620     1.5850
H     2.4290    -0.8680     2.8780
C     1.2620    -0.0600     1.3120
O     0.5020     0.4740     2.0740
N     1.0160    -0.0760    -0.0280
C     1.9660    -0.4800    -1.0660
H     1.7910    -1.5100    -1.3660
H     2.9870    -0.4030    -0.7210
C     1.6650     0.4840    -2.2130
H     1.9550     0.0840    -3.1770
H     2.2020     1.4150    -2.0580
C     0.1610     0.7120    -2.0810
H    -0.3800    -0.1220    -2.5190
H    -0.1890     1.6180    -2.5560
C    -0.0700     0.7470    -0.5600
H     0.0120     1.7550    -0.1770
C    -1.4900     0.3000    -0.2370
O    -2.3930     1.0730    -0.4080
N    -1.6720    -0.9890     0.1160
H    -0.8770    -1.4840     0.4470
C    -2.9770    -1.4590     0.5310
H    -2.9580    -2.5400     0.5820
H    -3.2610    -1.0630     1.5010
H    -3.7170    -1.1540    -0.1930
}
set {
basis 6-31g*
}
E,wfn = prop('HF' , properties = ['GRID_ESP', 'GRID_FIELD'], return_wfn=True)
--------------------------------------------------------------------------

    Molecular point group: c1

    Geometry (in Angstrom), charge = 0, multiplicity = 1:

       Center              X                  Y                   Z               Mass
    ------------   -----------------  -----------------  -----------------  -----------------
         H            2.644000000000    -1.733000000000     1.349000000000     1.007825032070
         C            2.511000000000    -0.759000000000     1.807000000000    12.000000000000
         H            3.390000000000    -0.162000000000     1.585000000000     1.007825032070
         H            2.429000000000    -0.868000000000     2.878000000000     1.007825032070
         C            1.262000000000    -0.060000000000     1.312000000000    12.000000000000
         O            0.502000000000     0.474000000000     2.074000000000    15.994914619560
         N            1.016000000000    -0.076000000000    -0.028000000000    14.003074004780
         C            1.966000000000    -0.480000000000    -1.066000000000    12.000000000000
         H            1.791000000000    -1.510000000000    -1.366000000000     1.007825032070
         H            2.987000000000    -0.403000000000    -0.721000000000     1.007825032070
         C            1.665000000000     0.484000000000    -2.213000000000    12.000000000000
         H            1.955000000000     0.084000000000    -3.177000000000     1.007825032070
         H            2.202000000000     1.415000000000    -2.058000000000     1.007825032070
         C            0.161000000000     0.712000000000    -2.081000000000    12.000000000000
         H           -0.380000000000    -0.122000000000    -2.519000000000     1.007825032070
         H           -0.189000000000     1.618000000000    -2.556000000000     1.007825032070
         C           -0.070000000000     0.747000000000    -0.560000000000    12.000000000000
         H            0.012000000000     1.755000000000    -0.177000000000     1.007825032070
         C           -1.490000000000     0.300000000000    -0.237000000000    12.000000000000
         O           -2.393000000000     1.073000000000    -0.408000000000    15.994914619560
         N           -1.672000000000    -0.989000000000     0.116000000000    14.003074004780
         H           -0.877000000000    -1.484000000000     0.447000000000     1.007825032070
         C           -2.977000000000    -1.459000000000     0.531000000000    12.000000000000
         H           -2.958000000000    -2.540000000000     0.582000000000     1.007825032070
         H           -3.261000000000    -1.063000000000     1.501000000000     1.007825032070
         H           -3.717000000000    -1.154000000000    -0.193000000000     1.007825032070

  Charge       = 0
  Multiplicity = 1
  Basis Set: 6-31G*
    Blend: 6-31G*
  Basis Set: (6-31G* AUX)
    Blend: CC-PVDZ-JKFIT

    Orbital Energies [Eh]
    ---------------------

    Doubly Occupied:

       1A    -20.529850     2A    -20.511009     3A    -15.594769
       4A    -15.573582     5A    -11.354240     6A    -11.333780
       7A    -11.280565     8A    -11.272160     9A    -11.247566
      10A    -11.241971    11A    -11.240233    12A    -11.237916
      13A     -1.400876    14A     -1.380066    15A     -1.270042
      16A     -1.220708    17A     -1.085786    18A     -1.034730
      19A     -1.001715    20A     -0.945888    21A     -0.884072
      22A     -0.828092    23A     -0.790286    24A     -0.766813
      25A     -0.710798    26A     -0.691032    27A     -0.669656
      28A     -0.635999    29A     -0.628479    30A     -0.620114
      31A     -0.613814    32A     -0.597451    33A     -0.586706
      34A     -0.571521    35A     -0.561069    36A     -0.558921
      37A     -0.542899    38A     -0.536308    39A     -0.513865
      40A     -0.506421    41A     -0.495655    42A     -0.482312
      43A     -0.425476    44A     -0.415183    45A     -0.383832
      46A     -0.372339

  @DF-RHF Final Energy:  -569.75526397553892

   => Energetics <=

    Nuclear Repulsion Energy =            764.4467728613352620
    One-Electron Energy =               -2294.1106712210876140
    Two-Electron Energy =                 959.9086343842133147
    Total Energy =                       -569.7552639755389237

  Dipole Moment: [D]
     X:     4.8278      Y:    -3.7270      Z:    -2.1610     Total:     6.4706

*** Psi4 exiting successfully. Buy a developer a beer!
