                               Psi4 1.2.1 release

  ==> Input File <==

--------------------------------------------------------------------------
memory 12 gb
molecule meoh {
noreorient
nocom
0 1
H     2.9130    -2.0420     0.0540
C     3.2730    -1.0950     0.4380
H     4.1820    -0.8160    -0.0770
H     3.5090    -1.2120     1.4900
C     2.2690     0.0270     0.2900
O     2.5820     1.1820     0.4170
N     1.0000    -0.3470     0.0330
H     0.7400    -1.3020    -0.0710
C    -0.0510     0.6200    -0.0950
H     0.1490     1.3050    -0.9130
H    -0.1340     1.2220     0.8050
C    -1.3650    -0.1000    -0.3490
O    -1.4300    -1.2990    -0.4320
N    -2.4360     0.7020    -0.4830
H    -2.3270     1.6810    -0.3480
C    -3.7670     0.1700    -0.6930
H    -4.1400    -0.3300     0.1930
H    -3.7590    -0.5390    -1.5090
H    -4.4300     0.9870    -0.9420
}
set {
basis 6-31g*
}
E,wfn = prop('HF' , properties = ['GRID_ESP', 'GRID_FIELD'], return_wfn=True)
--------------------------------------------------------------------------

    Molecular point group: c1

    Geometry (in Angstrom), charge = 0, multiplicity = 1:

       Center              X                  Y                   Z               Mass
    ------------   -----------------  -----------------  -----------------  -----------------
         H            2.913000000000    -2.042000000000     0.054000000000     1.007825032070
         C            3.273000000000    -1.095000000000     0.438000000000    12.000000000000
         H            4.182000000000    -0.816000000000    -0.077000000000     1.007825032070
         H            3.509000000000    -1.212000000000     1.490000000000     1.007825032070
         C            2.269000000000     0.027000000000     0.290000000000    12.000000000000
         O            2.582000000000     1.182000000000     0.417000000000    15.994914619560
         N            1.000000000000    -0.347000000000     0.033000000000    14.003074004780
         H            0.740000000000    -1.302000000000    -0.071000000000     1.007825032070
         C           -0.051000000000     0.620000000000    -0.095000000000    12.000000000000
         H            0.149000000000     1.305000000000    -0.913000000000     1.007825032070
         H           -0.134000000000     1.222000000000     0.805000000000     1.007825032070
         C           -1.365000000000    -0.100000000000    -0.349000000000    12.000000000000
         O           -1.430000000000    -1.299000000000    -0.432000000000    15.994914619560
         N           -2.436000000000     0.702000000000    -0.483000000000    14.003074004780
         H           -2.327000000000     1.681000000000    -0.348000000000     1.007825032070
         C           -3.767000000000     0.170000000000    -0.693000000000    12.000000000000
         H           -4.140000000000    -0.330000000000     0.193000000000     1.007825032070
         H           -3.759000000000    -0.539000000000    -1.509000000000     1.007825032070
         H           -4.430000000000     0.987000000000    -0.942000000000     1.007825032070

  Charge       = 0
  Multiplicity = 1
  Basis Set: 6-31G*
    Blend: 6-31G*
  Basis Set: (6-31G* AUX)
    Blend: CC-PVDZ-JKFIT

    Orbital Energies [Eh]
    ---------------------

    Doubly Occupied:

       1A    -20.538967     2A    -20.514087     3A    -15.598281
       4A    -15.579973     5A    -11.360269     6A    -11.342168
       7A    -11.277362     8A    -11.267543     9A    -11.227465
      10A     -1.407849    11A     -1.383190    12A     -1.246636
      13A     -1.232877    14A     -1.033448    15A     -0.987435
      16A     -0.931255    17A     -0.807990    18A     -0.793450
      19A     -0.727725    20A     -0.670793    21A     -0.666517
      22A     -0.659834    23A     -0.634595    24A     -0.625563
      25A     -0.593777    26A     -0.587625    27A     -0.568478
      28A     -0.564066    29A     -0.551738    30A     -0.534186
      31A     -0.499380    32A     -0.437150    33A     -0.412417
      34A     -0.407204    35A     -0.384028

  @DF-RHF Final Energy:  -453.82342122184798

   => Energetics <=

    Nuclear Repulsion Energy =            452.3507484675473620
    One-Electron Energy =               -1516.2378648943736152
    Two-Electron Energy =                 610.0636952049782167
    Total Energy =                       -453.8234212218479797

  Dipole Moment: [D]
     X:    -2.8601      Y:     0.3544      Z:    -0.3128     Total:     2.8989

*** Psi4 exiting successfully. Buy a developer a beer!
