                               Psi4 1.2.1 release

  ==> Input File <==

--------------------------------------------------------------------------
memory 12 gb
molecule meoh {
noreorient
nocom
0 1
H    -2.9520     0.1570     1.4380
C    -3.0050    -0.8240     0.9820
H    -3.8550    -0.8630     0.3120
H    -3.1640    -1.5690     1.7530
C    -1.7600    -1.1920     0.2010
O    -1.6670    -2.2420    -0.3730
N    -0.7570    -0.2770     0.2180
H    -0.9650     0.6400     0.5600
C     0.3830    -0.3980    -0.6760
H     0.0520    -0.8120    -1.6200
C     1.0000     0.9890    -0.9000
H     1.2800     1.3840     0.0710
H     1.9180     0.8610    -1.4580
C     0.0550     1.9540    -1.6380
H     0.2500     1.8930    -2.7040
H    -0.9720     1.6370    -1.5060
C     0.1680     3.4200    -1.2050
H     1.1550     3.8100    -1.4420
H    -0.5360     4.0040    -1.7950
C    -0.0960     3.6820     0.2820
H     0.7370     3.3300     0.8780
H    -0.1520     4.7590     0.4360
N    -1.2940     2.9870     0.7570
H    -1.4630     3.2180     1.7180
H    -2.1000     3.2990     0.2460
C     1.4750    -1.3520    -0.1900
O     2.3480    -1.6830    -0.9490
N     1.4460    -1.7200     1.1040
H     0.6160    -1.5340     1.6150
C     2.3780    -2.6970     1.6220
H     2.3120    -2.7040     2.7020
H     2.1670    -3.6940     1.2490
H     3.3840    -2.4300     1.3320
}
set {
basis 6-31g*
}
E,wfn = prop('HF' , properties = ['GRID_ESP', 'GRID_FIELD'], return_wfn=True)
--------------------------------------------------------------------------

    Molecular point group: c1

    Geometry (in Angstrom), charge = 0, multiplicity = 1:

       Center              X                  Y                   Z               Mass
    ------------   -----------------  -----------------  -----------------  -----------------
         H           -2.952000000000     0.157000000000     1.438000000000     1.007825032070
         C           -3.005000000000    -0.824000000000     0.982000000000    12.000000000000
         H           -3.855000000000    -0.863000000000     0.312000000000     1.007825032070
         H           -3.164000000000    -1.569000000000     1.753000000000     1.007825032070
         C           -1.760000000000    -1.192000000000     0.201000000000    12.000000000000
         O           -1.667000000000    -2.242000000000    -0.373000000000    15.994914619560
         N           -0.757000000000    -0.277000000000     0.218000000000    14.003074004780
         H           -0.965000000000     0.640000000000     0.560000000000     1.007825032070
         C            0.383000000000    -0.398000000000    -0.676000000000    12.000000000000
         H            0.052000000000    -0.812000000000    -1.620000000000     1.007825032070
         C            1.000000000000     0.989000000000    -0.900000000000    12.000000000000
         H            1.280000000000     1.384000000000     0.071000000000     1.007825032070
         H            1.918000000000     0.861000000000    -1.458000000000     1.007825032070
         C            0.055000000000     1.954000000000    -1.638000000000    12.000000000000
         H            0.250000000000     1.893000000000    -2.704000000000     1.007825032070
         H           -0.972000000000     1.637000000000    -1.506000000000     1.007825032070
         C            0.168000000000     3.420000000000    -1.205000000000    12.000000000000
         H            1.155000000000     3.810000000000    -1.442000000000     1.007825032070
         H           -0.536000000000     4.004000000000    -1.795000000000     1.007825032070
         C           -0.096000000000     3.682000000000     0.282000000000    12.000000000000
         H            0.737000000000     3.330000000000     0.878000000000     1.007825032070
         H           -0.152000000000     4.759000000000     0.436000000000     1.007825032070
         N           -1.294000000000     2.987000000000     0.757000000000    14.003074004780
         H           -1.463000000000     3.218000000000     1.718000000000     1.007825032070
         H           -2.100000000000     3.299000000000     0.246000000000     1.007825032070
         C            1.475000000000    -1.352000000000    -0.190000000000    12.000000000000
         O            2.348000000000    -1.683000000000    -0.949000000000    15.994914619560
         N            1.446000000000    -1.720000000000     1.104000000000    14.003074004780
         H            0.616000000000    -1.534000000000     1.615000000000     1.007825032070
         C            2.378000000000    -2.697000000000     1.622000000000    12.000000000000
         H            2.312000000000    -2.704000000000     2.702000000000     1.007825032070
         H            2.167000000000    -3.694000000000     1.249000000000     1.007825032070
         H            3.384000000000    -2.430000000000     1.332000000000     1.007825032070

  Charge       = 0
  Multiplicity = 1
  Basis Set: 6-31G*
    Blend: 6-31G*
  Basis Set: (6-31G* AUX)
    Blend: CC-PVDZ-JKFIT

    Orbital Energies [Eh]
    ---------------------

    Doubly Occupied:

       1A    -20.519251     2A    -20.504053     3A    -15.577732
       4A    -15.569175     5A    -15.568208     6A    -11.344571
       7A    -11.326831     8A    -11.265350     9A    -11.263500
      10A    -11.245025    11A    -11.231910    12A    -11.231469
      13A    -11.225965    14A    -11.224035    15A     -1.389182
      16A     -1.372992    17A     -1.238487    18A     -1.212637
      19A     -1.205944    20A     -1.082615    21A     -1.031052
      22A     -0.989104    23A     -0.956362    24A     -0.916838
      25A     -0.855268    26A     -0.793974    27A     -0.788974
      28A     -0.772677    29A     -0.703205    30A     -0.694506
      31A     -0.678604    32A     -0.669405    33A     -0.652274
      34A     -0.622614    35A     -0.615480    36A     -0.611413
      37A     -0.607133    38A     -0.603750    39A     -0.580943
      40A     -0.574208    41A     -0.560446    42A     -0.549079
      43A     -0.540710    44A     -0.532948    45A     -0.526825
      46A     -0.518194    47A     -0.500179    48A     -0.475419
      49A     -0.470781    50A     -0.469737    51A     -0.422273
      52A     -0.417649    53A     -0.411432    54A     -0.378665
      55A     -0.370839

  @DF-RHF Final Energy:  -664.98055462216951

   => Energetics <=

    Nuclear Repulsion Energy =            974.0738148933801313
    One-Electron Energy =               -2841.1845404798082200
    Two-Electron Energy =                1202.1301709642584683
    Total Energy =                       -664.9805546221696204

  Dipole Moment: [D]
     X:    -2.9015      Y:     6.3970      Z:     4.0849     Total:     8.1257

*** Psi4 exiting successfully. Buy a developer a beer!
