                               Psi4 1.2.1 release

  ==> Input File <==

--------------------------------------------------------------------------
memory 12 gb
molecule meoh {
noreorient
nocom
0 1
H     3.7410    -1.0320     0.7090
C     3.2550    -0.5760    -0.1410
H     3.0670    -1.3260    -0.9010
H     3.9230     0.1710    -0.5590
C     1.9860     0.1040     0.3250
O     1.8350     0.4720     1.4560
N     1.0360     0.2750    -0.6330
H     1.2480    -0.0100    -1.5620
C    -0.1450     1.0850    -0.4350
H    -0.2570     1.7910    -1.2460
H    -0.0190     1.6460     0.4800
C    -1.4660     0.3330    -0.3280
O    -2.4940     0.9080    -0.5620
N    -1.4040    -0.9570     0.0510
H    -0.5300    -1.3080     0.3670
C    -2.6030    -1.7130     0.3430
H    -3.3350    -1.5390    -0.4310
H    -3.0380    -1.4320     1.2960
H    -2.3560    -2.7660     0.3660
}
set {
basis 6-31g*
}
E,wfn = prop('HF' , properties = ['GRID_ESP', 'GRID_FIELD'], return_wfn=True)
--------------------------------------------------------------------------

    Molecular point group: c1

    Geometry (in Angstrom), charge = 0, multiplicity = 1:

       Center              X                  Y                   Z               Mass
    ------------   -----------------  -----------------  -----------------  -----------------
         H            3.741000000000    -1.032000000000     0.709000000000     1.007825032070
         C            3.255000000000    -0.576000000000    -0.141000000000    12.000000000000
         H            3.067000000000    -1.326000000000    -0.901000000000     1.007825032070
         H            3.923000000000     0.171000000000    -0.559000000000     1.007825032070
         C            1.986000000000     0.104000000000     0.325000000000    12.000000000000
         O            1.835000000000     0.472000000000     1.456000000000    15.994914619560
         N            1.036000000000     0.275000000000    -0.633000000000    14.003074004780
         H            1.248000000000    -0.010000000000    -1.562000000000     1.007825032070
         C           -0.145000000000     1.085000000000    -0.435000000000    12.000000000000
         H           -0.257000000000     1.791000000000    -1.246000000000     1.007825032070
         H           -0.019000000000     1.646000000000     0.480000000000     1.007825032070
         C           -1.466000000000     0.333000000000    -0.328000000000    12.000000000000
         O           -2.494000000000     0.908000000000    -0.562000000000    15.994914619560
         N           -1.404000000000    -0.957000000000     0.051000000000    14.003074004780
         H           -0.530000000000    -1.308000000000     0.367000000000     1.007825032070
         C           -2.603000000000    -1.713000000000     0.343000000000    12.000000000000
         H           -3.335000000000    -1.539000000000    -0.431000000000     1.007825032070
         H           -3.038000000000    -1.432000000000     1.296000000000     1.007825032070
         H           -2.356000000000    -2.766000000000     0.366000000000     1.007825032070

  Charge       = 0
  Multiplicity = 1
  Basis Set: 6-31G*
    Blend: 6-31G*
  Basis Set: (6-31G* AUX)
    Blend: CC-PVDZ-JKFIT

    Orbital Energies [Eh]
    ---------------------

    Doubly Occupied:

       1A    -20.536160     2A    -20.518852     3A    -15.602058
       4A    -15.583207     5A    -11.362610     6A    -11.342667
       7A    -11.274933     8A    -11.255809     9A    -11.244888
      10A     -1.405927    11A     -1.388363    12A     -1.253743
      13A     -1.226685    14A     -1.040393    15A     -0.984202
      16A     -0.934195    17A     -0.808997    18A     -0.788902
      19A     -0.730344    20A     -0.695218    21A     -0.674735
      22A     -0.636349    23A     -0.626428    24A     -0.624959
      25A     -0.598017    26A     -0.582673    27A     -0.576971
      28A     -0.569197    29A     -0.551361    30A     -0.530402
      31A     -0.508410    32A     -0.441725    33A     -0.431242
      34A     -0.396546    35A     -0.383378

  @DF-RHF Final Energy:  -453.82001860043198

   => Energetics <=

    Nuclear Repulsion Energy =            459.7745878064368412
    One-Electron Energy =               -1530.9679651982887663
    Two-Electron Energy =                 617.3733587914199461
    Total Energy =                       -453.8200186004320358

  Dipole Moment: [D]
     X:     3.1433      Y:    -3.0743      Z:    -2.4711     Total:     5.0436

*** Psi4 exiting successfully. Buy a developer a beer!
