                               Psi4 1.2.1 release

  ==> Input File <==

--------------------------------------------------------------------------
memory 12 gb
molecule meoh {
noreorient
nocom
-1 1
H     3.5340    -1.8500    -0.0660
C     3.1720    -0.8300    -0.1100
H     3.2930    -0.4380    -1.1120
H     3.7660    -0.2290     0.5700
C     1.7330    -0.7960     0.3660
O     1.3990    -1.4540     1.3300
N     0.9110    -0.0140    -0.3460
H     1.3610     0.7000    -0.8910
C    -0.3670     0.4820     0.1650
H    -0.2700     0.6420     1.2330
C    -0.6920     1.8180    -0.5230
H    -0.9900     1.6030    -1.5420
H    -1.5690     2.2200    -0.0270
S     0.6910     3.0170    -0.4890
C    -1.4680    -0.5690    -0.0620
O    -2.2990    -0.4930    -0.9290
N    -1.4570    -1.5940     0.8280
H    -0.6050    -1.7250     1.3330
C    -2.3200    -2.7300     0.6340
H    -3.3500    -2.4080     0.5570
H    -2.0780    -3.2890    -0.2670
H    -2.2240    -3.3910     1.4880
}
set {
basis 6-31g*
}
E,wfn = prop('HF' , properties = ['GRID_ESP', 'GRID_FIELD'], return_wfn=True)
--------------------------------------------------------------------------

    Molecular point group: c1

    Geometry (in Angstrom), charge = -1, multiplicity = 1:

       Center              X                  Y                   Z               Mass
    ------------   -----------------  -----------------  -----------------  -----------------
         H            3.534000000000    -1.850000000000    -0.066000000000     1.007825032070
         C            3.172000000000    -0.830000000000    -0.110000000000    12.000000000000
         H            3.293000000000    -0.438000000000    -1.112000000000     1.007825032070
         H            3.766000000000    -0.229000000000     0.570000000000     1.007825032070
         C            1.733000000000    -0.796000000000     0.366000000000    12.000000000000
         O            1.399000000000    -1.454000000000     1.330000000000    15.994914619560
         N            0.911000000000    -0.014000000000    -0.346000000000    14.003074004780
         H            1.361000000000     0.700000000000    -0.891000000000     1.007825032070
         C           -0.367000000000     0.482000000000     0.165000000000    12.000000000000
         H           -0.270000000000     0.642000000000     1.233000000000     1.007825032070
         C           -0.692000000000     1.818000000000    -0.523000000000    12.000000000000
         H           -0.990000000000     1.603000000000    -1.542000000000     1.007825032070
         H           -1.569000000000     2.220000000000    -0.027000000000     1.007825032070
         S            0.691000000000     3.017000000000    -0.489000000000    31.972070999000
         C           -1.468000000000    -0.569000000000    -0.062000000000    12.000000000000
         O           -2.299000000000    -0.493000000000    -0.929000000000    15.994914619560
         N           -1.457000000000    -1.594000000000     0.828000000000    14.003074004780
         H           -0.605000000000    -1.725000000000     1.333000000000     1.007825032070
         C           -2.320000000000    -2.730000000000     0.634000000000    12.000000000000
         H           -3.350000000000    -2.408000000000     0.557000000000     1.007825032070
         H           -2.078000000000    -3.289000000000    -0.267000000000     1.007825032070
         H           -2.224000000000    -3.391000000000     1.488000000000     1.007825032070

  Charge       = -1
  Multiplicity = 1
  Basis Set: 6-31G*
    Blend: 6-31G*
  Basis Set: (6-31G* AUX)
    Blend: CC-PVDZ-JKFIT

    Orbital Energies [Eh]
    ---------------------

    Doubly Occupied:

       1A    -91.666900     2A    -20.413534     3A    -20.399282
       4A    -15.452595     5A    -15.451069     6A    -11.235853
       7A    -11.213388     8A    -11.149912     9A    -11.132833
      10A    -11.126654    11A    -11.073399    12A     -8.674610
      13A     -6.358385    14A     -6.355328    15A     -6.355076
      16A     -1.276547    17A     -1.263436    18A     -1.114923
      19A     -1.102067    20A     -0.922353    21A     -0.870105
      22A     -0.840481    23A     -0.747051    24A     -0.675066
      25A     -0.650404    26A     -0.601906    27A     -0.577348
      28A     -0.563551    29A     -0.546036    30A     -0.520481
      31A     -0.506341    32A     -0.499592    33A     -0.472937
      34A     -0.467694    35A     -0.443631    36A     -0.438892
      37A     -0.412162    38A     -0.398951    39A     -0.387323
      40A     -0.359319    41A     -0.313686    42A     -0.307655
      43A     -0.271930    44A     -0.260460    45A     -0.245258
      46A     -0.109358    47A     -0.103954

  @DF-RHF Final Energy:  -889.80709221477844

   => Energetics <=

    Nuclear Repulsion Energy =            722.6743435525397672
    One-Electron Energy =               -2672.3031969994985957
    Two-Electron Energy =                1059.8217612321802790
    Total Energy =                       -889.8070922147785495

  Dipole Moment: [D]
     X:     0.4252      Y:    -9.8279      Z:     1.6607     Total:     9.9762

*** Psi4 exiting successfully. Buy a developer a beer!
