                               Psi4 1.2.1 release

  ==> Input File <==

--------------------------------------------------------------------------
memory 12 gb
molecule meoh {
noreorient
nocom
0 1
H    -4.6760    -0.9940    -0.1900
C    -4.2360    -0.0920     0.2230
H    -4.1300    -0.2220     1.2940
H    -4.9020     0.7340     0.0180
C    -2.9100     0.1630    -0.4630
O    -2.8350     0.7950    -1.4830
N    -1.8300    -0.3780     0.1490
H    -1.9800    -1.0860     0.8340
C    -0.5410    -0.4340    -0.5070
H    -0.6890    -0.7220    -1.5450
C     0.1880     0.9160    -0.5120
H     1.0500     0.8240    -1.1620
H    -0.4700     1.6330    -0.9870
C     0.6140     1.4230     0.8680
H    -0.2690     1.6770     1.4450
H     1.1160     0.6330     1.4160
C     1.5380     2.6460     0.8200
H     0.9920     3.5120     0.4530
H     1.8370     2.8880     1.8380
C     2.7920     2.4820    -0.0430
H     2.5250     2.5080    -1.0930
H     3.4450     3.3380     0.1300
N     3.4640     1.2060     0.2040
H     4.3020     1.1470    -0.3440
H     3.7490     1.1430     1.1640
C     0.2390    -1.5900     0.1350
O    -0.3380    -2.4520     0.7500
N     1.5670    -1.6270    -0.0860
H     2.0450    -0.7830    -0.3170
C     2.3650    -2.6840     0.4990
H     1.9640    -3.6480     0.2200
H     3.3750    -2.5990     0.1200
H     2.3870    -2.6270     1.5830
}
set {
basis 6-31g*
}
E,wfn = prop('HF' , properties = ['GRID_ESP', 'GRID_FIELD'], return_wfn=True)
--------------------------------------------------------------------------

    Molecular point group: c1

    Geometry (in Angstrom), charge = 0, multiplicity = 1:

       Center              X                  Y                   Z               Mass
    ------------   -----------------  -----------------  -----------------  -----------------
         H           -4.676000000000    -0.994000000000    -0.190000000000     1.007825032070
         C           -4.236000000000    -0.092000000000     0.223000000000    12.000000000000
         H           -4.130000000000    -0.222000000000     1.294000000000     1.007825032070
         H           -4.902000000000     0.734000000000     0.018000000000     1.007825032070
         C           -2.910000000000     0.163000000000    -0.463000000000    12.000000000000
         O           -2.835000000000     0.795000000000    -1.483000000000    15.994914619560
         N           -1.830000000000    -0.378000000000     0.149000000000    14.003074004780
         H           -1.980000000000    -1.086000000000     0.834000000000     1.007825032070
         C           -0.541000000000    -0.434000000000    -0.507000000000    12.000000000000
         H           -0.689000000000    -0.722000000000    -1.545000000000     1.007825032070
         C            0.188000000000     0.916000000000    -0.512000000000    12.000000000000
         H            1.050000000000     0.824000000000    -1.162000000000     1.007825032070
         H           -0.470000000000     1.633000000000    -0.987000000000     1.007825032070
         C            0.614000000000     1.423000000000     0.868000000000    12.000000000000
         H           -0.269000000000     1.677000000000     1.445000000000     1.007825032070
         H            1.116000000000     0.633000000000     1.416000000000     1.007825032070
         C            1.538000000000     2.646000000000     0.820000000000    12.000000000000
         H            0.992000000000     3.512000000000     0.453000000000     1.007825032070
         H            1.837000000000     2.888000000000     1.838000000000     1.007825032070
         C            2.792000000000     2.482000000000    -0.043000000000    12.000000000000
         H            2.525000000000     2.508000000000    -1.093000000000     1.007825032070
         H            3.445000000000     3.338000000000     0.130000000000     1.007825032070
         N            3.464000000000     1.206000000000     0.204000000000    14.003074004780
         H            4.302000000000     1.147000000000    -0.344000000000     1.007825032070
         H            3.749000000000     1.143000000000     1.164000000000     1.007825032070
         C            0.239000000000    -1.590000000000     0.135000000000    12.000000000000
         O           -0.338000000000    -2.452000000000     0.750000000000    15.994914619560
         N            1.567000000000    -1.627000000000    -0.086000000000    14.003074004780
         H            2.045000000000    -0.783000000000    -0.317000000000     1.007825032070
         C            2.365000000000    -2.684000000000     0.499000000000    12.000000000000
         H            1.964000000000    -3.648000000000     0.220000000000     1.007825032070
         H            3.375000000000    -2.599000000000     0.120000000000     1.007825032070
         H            2.387000000000    -2.627000000000     1.583000000000     1.007825032070

  Charge       = 0
  Multiplicity = 1
  Basis Set: 6-31G*
    Blend: 6-31G*
  Basis Set: (6-31G* AUX)
    Blend: CC-PVDZ-JKFIT

    Orbital Energies [Eh]
    ---------------------

    Doubly Occupied:

       1A    -20.525469     2A    -20.513327     3A    -15.575947
       4A    -15.568906     5A    -15.560436     6A    -11.344124
       7A    -11.337677     8A    -11.270078     9A    -11.257286
      10A    -11.251968    11A    -11.225647    12A    -11.223032
      13A    -11.218136    14A    -11.217537    15A     -1.394675
      16A     -1.379753    17A     -1.227962    18A     -1.226098
      19A     -1.199391    20A     -1.079518    21A     -1.027939
      22A     -0.984409    23A     -0.954689    24A     -0.914934
      25A     -0.861319    26A     -0.795306    27A     -0.789120
      28A     -0.753641    29A     -0.722276    30A     -0.686594
      31A     -0.665307    32A     -0.653043    33A     -0.651807
      34A     -0.641147    35A     -0.618885    36A     -0.614644
      37A     -0.602025    38A     -0.597168    39A     -0.583709
      40A     -0.575147    41A     -0.554705    42A     -0.548398
      43A     -0.544635    44A     -0.527638    45A     -0.524233
      46A     -0.517665    47A     -0.506319    48A     -0.479475
      49A     -0.471210    50A     -0.460287    51A     -0.417609
      52A     -0.407329    53A     -0.406798    54A     -0.389544
      55A     -0.377255

  @DF-RHF Final Energy:  -664.98243754065300

   => Energetics <=

    Nuclear Repulsion Energy =            971.6318051473575679
    One-Electron Energy =               -2836.3822300429237657
    Two-Electron Energy =                1199.7679873549129752
    Total Energy =                       -664.9824375406531090

  Dipole Moment: [D]
     X:     4.4261      Y:     1.4679      Z:     1.8250     Total:     5.0076

*** Psi4 exiting successfully. Buy a developer a beer!
