                               Psi4 1.2.1 release

  ==> Input File <==

--------------------------------------------------------------------------
memory 12 gb
molecule meoh {
noreorient
nocom
0 1
H     1.7670     3.1730     2.6150
C     1.9140     2.2220     2.1200
H     2.7990     1.7610     2.5450
H     2.0750     2.3840     1.0620
C     0.7220     1.3390     2.4150
O     0.2750     1.2420     3.5340
N     0.2140     0.6620     1.3700
H     0.6690     0.7240     0.4870
C    -0.9690    -0.1790     1.4420
H    -1.6070     0.2440     2.2090
C    -1.7280    -0.1490     0.1060
H    -2.2040     0.8220     0.0250
H    -2.5180    -0.8850     0.1600
C    -0.8860    -0.3820    -1.1230
C    -0.5060    -1.5690    -1.6490
H    -0.7100    -2.5540    -1.2860
N     0.2450    -1.3750    -2.7780
H     0.6340    -2.0980    -3.3350
C     0.3710    -0.0320    -3.0100
C     1.0380     0.6510    -4.0250
H     1.5690     0.1230    -4.7970
C     0.9940     2.0250    -4.0050
H     1.4990     2.5830    -4.7740
C     0.3000     2.7150    -2.9990
H     0.2820     3.7910    -3.0160
C    -0.3570     2.0350    -2.0010
H    -0.8900     2.5760    -1.2380
C    -0.3280     0.6350    -1.9930
C    -0.6470    -1.6140     1.8940
O    -0.9690    -2.5800     1.2480
N    -0.0180    -1.7070     3.0760
H     0.1210    -0.8740     3.6070
C     0.2900    -2.9900     3.6650
H    -0.6090    -3.5330     3.9360
H     0.8830    -2.8260     4.5560
H     0.8570    -3.5990     2.9740
}
set {
basis 6-31g*
}
E,wfn = prop('HF' , properties = ['GRID_ESP', 'GRID_FIELD'], return_wfn=True)
--------------------------------------------------------------------------

    Molecular point group: c1

    Geometry (in Angstrom), charge = 0, multiplicity = 1:

       Center              X                  Y                   Z               Mass
    ------------   -----------------  -----------------  -----------------  -----------------
         H            1.767000000000     3.173000000000     2.615000000000     1.007825032070
         C            1.914000000000     2.222000000000     2.120000000000    12.000000000000
         H            2.799000000000     1.761000000000     2.545000000000     1.007825032070
         H            2.075000000000     2.384000000000     1.062000000000     1.007825032070
         C            0.722000000000     1.339000000000     2.415000000000    12.000000000000
         O            0.275000000000     1.242000000000     3.534000000000    15.994914619560
         N            0.214000000000     0.662000000000     1.370000000000    14.003074004780
         H            0.669000000000     0.724000000000     0.487000000000     1.007825032070
         C           -0.969000000000    -0.179000000000     1.442000000000    12.000000000000
         H           -1.607000000000     0.244000000000     2.209000000000     1.007825032070
         C           -1.728000000000    -0.149000000000     0.106000000000    12.000000000000
         H           -2.204000000000     0.822000000000     0.025000000000     1.007825032070
         H           -2.518000000000    -0.885000000000     0.160000000000     1.007825032070
         C           -0.886000000000    -0.382000000000    -1.123000000000    12.000000000000
         C           -0.506000000000    -1.569000000000    -1.649000000000    12.000000000000
         H           -0.710000000000    -2.554000000000    -1.286000000000     1.007825032070
         N            0.245000000000    -1.375000000000    -2.778000000000    14.003074004780
         H            0.634000000000    -2.098000000000    -3.335000000000     1.007825032070
         C            0.371000000000    -0.032000000000    -3.010000000000    12.000000000000
         C            1.038000000000     0.651000000000    -4.025000000000    12.000000000000
         H            1.569000000000     0.123000000000    -4.797000000000     1.007825032070
         C            0.994000000000     2.025000000000    -4.005000000000    12.000000000000
         H            1.499000000000     2.583000000000    -4.774000000000     1.007825032070
         C            0.300000000000     2.715000000000    -2.999000000000    12.000000000000
         H            0.282000000000     3.791000000000    -3.016000000000     1.007825032070
         C           -0.357000000000     2.035000000000    -2.001000000000    12.000000000000
         H           -0.890000000000     2.576000000000    -1.238000000000     1.007825032070
         C           -0.328000000000     0.635000000000    -1.993000000000    12.000000000000
         C           -0.647000000000    -1.614000000000     1.894000000000    12.000000000000
         O           -0.969000000000    -2.580000000000     1.248000000000    15.994914619560
         N           -0.018000000000    -1.707000000000     3.076000000000    14.003074004780
         H            0.121000000000    -0.874000000000     3.607000000000     1.007825032070
         C            0.290000000000    -2.990000000000     3.665000000000    12.000000000000
         H           -0.609000000000    -3.533000000000     3.936000000000     1.007825032070
         H            0.883000000000    -2.826000000000     4.556000000000     1.007825032070
         H            0.857000000000    -3.599000000000     2.974000000000     1.007825032070

  Charge       = 0
  Multiplicity = 1
  Basis Set: 6-31G*
    Blend: 6-31G*
  Basis Set: (6-31G* AUX)
    Blend: CC-PVDZ-JKFIT

    Orbital Energies [Eh]
    ---------------------

    Doubly Occupied:

       1A    -20.528878     2A    -20.518985     3A    -15.604096
       4A    -15.592293     5A    -15.569922     6A    -11.356785
       7A    -11.337037     8A    -11.277677     9A    -11.264036
      10A    -11.260206    11A    -11.249225    12A    -11.236267
      13A    -11.232096    14A    -11.232024    15A    -11.231378
      16A    -11.228848    17A    -11.225152    18A    -11.222301
      19A    -11.216843    20A     -1.398051    21A     -1.383888
      22A     -1.301868    23A     -1.247438    24A     -1.219674
      25A     -1.136442    26A     -1.086751    27A     -1.042041
      28A     -1.003982    29A     -0.996867    30A     -0.977569
      31A     -0.951666    32A     -0.880589    33A     -0.844385
      34A     -0.812040    35A     -0.804102    36A     -0.781832
      37A     -0.757188    38A     -0.732159    39A     -0.722885
      40A     -0.683395    41A     -0.668199    42A     -0.657618
      43A     -0.649386    44A     -0.638702    45A     -0.618742
      46A     -0.613687    47A     -0.608904    48A     -0.599258
      49A     -0.593566    50A     -0.587182    51A     -0.584782
      52A     -0.574837    53A     -0.560872    54A     -0.548607
      55A     -0.541823    56A     -0.530937    57A     -0.527518
      58A     -0.520490    59A     -0.507627    60A     -0.497038
      61A     -0.475189    62A     -0.468269    63A     -0.439124
      64A     -0.425237    65A     -0.387339    66A     -0.380785
      67A     -0.372981    68A     -0.301545    69A     -0.280656

  @DF-RHF Final Energy:  -853.17426636487437

   => Energetics <=

    Nuclear Repulsion Energy =           1435.3621291797226149
    One-Electron Energy =               -4014.4537834787852262
    Two-Electron Energy =                1725.9173879341883548
    Total Energy =                       -853.1742663648742564

  Dipole Moment: [D]
     X:     2.5156      Y:     0.2231      Z:    -1.9163     Total:     3.1702

*** Psi4 exiting successfully. Buy a developer a beer!
