                               Psi4 1.2.1 release

  ==> Input File <==

--------------------------------------------------------------------------
memory 12 gb
molecule meoh {
noreorient
nocom
0 1
H     3.8070     2.1670     2.8760
C     3.5040     2.8620     2.0990
H     4.3490     3.0570     1.4550
H     3.1800     3.7830     2.5700
C     2.4000     2.2210     1.2890
O     2.6120     1.6920     0.2330
N     1.1550     2.3200     1.8420
H     1.1590     2.5630     2.8080
C     0.0730     1.4270     1.4760
H    -0.7700     1.7560     2.0750
C    -0.3470     1.5860    -0.0250
H     0.2610     2.3780    -0.4320
H    -1.3670     1.9550    -0.0410
C    -0.2730     0.3820    -0.9290
C     0.8320    -0.1910    -1.4590
H     1.8550     0.0860    -1.3250
N     0.4840    -1.2600    -2.2420
H     1.1250    -1.8330    -2.7390
C    -0.8770    -1.4000    -2.2390
C    -1.6920    -2.3300    -2.8800
H    -1.2740    -3.1030    -3.5020
C    -3.0510    -2.2270    -2.6920
H    -3.7070    -2.9300    -3.1730
C    -3.5970    -1.2180    -1.8850
H    -4.6640    -1.1610    -1.7630
C    -2.7860    -0.3000    -1.2570
H    -3.2210     0.4760    -0.6510
C    -1.3980    -0.3830    -1.4260
C     0.3750     0.0080     1.9950
O     1.3990    -0.2360     2.5730
N    -0.6320    -0.8870     1.8890
H    -1.3240    -0.7250     1.1930
C    -0.4220    -2.2670     2.2750
H    -1.3700    -2.7850     2.2290
H    -0.0460    -2.3090     3.2870
H     0.2870    -2.7680     1.6240
}
set {
basis 6-31g*
}
E,wfn = prop('HF' , properties = ['GRID_ESP', 'GRID_FIELD'], return_wfn=True)
--------------------------------------------------------------------------

    Molecular point group: c1

    Geometry (in Angstrom), charge = 0, multiplicity = 1:

       Center              X                  Y                   Z               Mass
    ------------   -----------------  -----------------  -----------------  -----------------
         H            3.807000000000     2.167000000000     2.876000000000     1.007825032070
         C            3.504000000000     2.862000000000     2.099000000000    12.000000000000
         H            4.349000000000     3.057000000000     1.455000000000     1.007825032070
         H            3.180000000000     3.783000000000     2.570000000000     1.007825032070
         C            2.400000000000     2.221000000000     1.289000000000    12.000000000000
         O            2.612000000000     1.692000000000     0.233000000000    15.994914619560
         N            1.155000000000     2.320000000000     1.842000000000    14.003074004780
         H            1.159000000000     2.563000000000     2.808000000000     1.007825032070
         C            0.073000000000     1.427000000000     1.476000000000    12.000000000000
         H           -0.770000000000     1.756000000000     2.075000000000     1.007825032070
         C           -0.347000000000     1.586000000000    -0.025000000000    12.000000000000
         H            0.261000000000     2.378000000000    -0.432000000000     1.007825032070
         H           -1.367000000000     1.955000000000    -0.041000000000     1.007825032070
         C           -0.273000000000     0.382000000000    -0.929000000000    12.000000000000
         C            0.832000000000    -0.191000000000    -1.459000000000    12.000000000000
         H            1.855000000000     0.086000000000    -1.325000000000     1.007825032070
         N            0.484000000000    -1.260000000000    -2.242000000000    14.003074004780
         H            1.125000000000    -1.833000000000    -2.739000000000     1.007825032070
         C           -0.877000000000    -1.400000000000    -2.239000000000    12.000000000000
         C           -1.692000000000    -2.330000000000    -2.880000000000    12.000000000000
         H           -1.274000000000    -3.103000000000    -3.502000000000     1.007825032070
         C           -3.051000000000    -2.227000000000    -2.692000000000    12.000000000000
         H           -3.707000000000    -2.930000000000    -3.173000000000     1.007825032070
         C           -3.597000000000    -1.218000000000    -1.885000000000    12.000000000000
         H           -4.664000000000    -1.161000000000    -1.763000000000     1.007825032070
         C           -2.786000000000    -0.300000000000    -1.257000000000    12.000000000000
         H           -3.221000000000     0.476000000000    -0.651000000000     1.007825032070
         C           -1.398000000000    -0.383000000000    -1.426000000000    12.000000000000
         C            0.375000000000     0.008000000000     1.995000000000    12.000000000000
         O            1.399000000000    -0.236000000000     2.573000000000    15.994914619560
         N           -0.632000000000    -0.887000000000     1.889000000000    14.003074004780
         H           -1.324000000000    -0.725000000000     1.193000000000     1.007825032070
         C           -0.422000000000    -2.267000000000     2.275000000000    12.000000000000
         H           -1.370000000000    -2.785000000000     2.229000000000     1.007825032070
         H           -0.046000000000    -2.309000000000     3.287000000000     1.007825032070
         H            0.287000000000    -2.768000000000     1.624000000000     1.007825032070

  Charge       = 0
  Multiplicity = 1
  Basis Set: 6-31G*
    Blend: 6-31G*
  Basis Set: (6-31G* AUX)
    Blend: CC-PVDZ-JKFIT

    Orbital Energies [Eh]
    ---------------------

    Doubly Occupied:

       1A    -20.522745     2A    -20.520910     3A    -15.599531
       4A    -15.578591     5A    -15.573605     6A    -11.345391
       7A    -11.338574     8A    -11.280612     9A    -11.260978
      10A    -11.254031    11A    -11.247532    12A    -11.233601
      13A    -11.230247    14A    -11.229918    15A    -11.226516
      16A    -11.225219    17A    -11.222408    18A    -11.220873
      19A    -11.212817    20A     -1.394784    21A     -1.383365
      22A     -1.297626    23A     -1.234133    24A     -1.224175
      25A     -1.134046    26A     -1.082592    27A     -1.035184
      28A     -1.000681    29A     -0.990380    30A     -0.973176
      31A     -0.943451    32A     -0.888288    33A     -0.842119
      34A     -0.806186    35A     -0.790044    36A     -0.771195
      37A     -0.759360    38A     -0.729982    39A     -0.707638
      40A     -0.688681    41A     -0.655693    42A     -0.655470
      43A     -0.644726    44A     -0.629344    45A     -0.619368
      46A     -0.612439    47A     -0.607851    48A     -0.597239
      49A     -0.587864    50A     -0.583409    51A     -0.578906
      52A     -0.569804    53A     -0.555610    54A     -0.548669
      55A     -0.542156    56A     -0.532503    57A     -0.527185
      58A     -0.508235    59A     -0.499628    60A     -0.493260
      61A     -0.474030    62A     -0.465619    63A     -0.427356
      64A     -0.414499    65A     -0.390043    66A     -0.386106
      67A     -0.370943    68A     -0.298401    69A     -0.277372

  @DF-RHF Final Energy:  -853.15719281187717

   => Energetics <=

    Nuclear Repulsion Energy =           1456.8444488647623984
    One-Electron Energy =               -4057.8934478041846887
    Two-Electron Energy =                1747.8918061275451237
    Total Energy =                       -853.1571928118771666

  Dipole Moment: [D]
     X:    -1.6158      Y:     0.0226      Z:     0.4583     Total:     1.6797

*** Psi4 exiting successfully. Buy a developer a beer!
