                               Psi4 1.2.1 release

  ==> Input File <==

--------------------------------------------------------------------------
memory 12 gb
molecule meoh {
noreorient
nocom
0 1
H     4.1350     0.5860    -1.4240
C     3.3370     0.8660    -0.7510
H     2.7710     1.6800    -1.1940
H     3.7540     1.2170     0.1860
C     2.4250    -0.3240    -0.5450
O     2.4580    -1.2920    -1.2510
N     1.5760    -0.2230     0.5190
H     1.4750     0.6880     0.9080
C     0.4130    -1.0880     0.6690
H    -0.0970    -0.7140     1.5510
C    -0.5690    -1.0410    -0.5180
H    -1.4420    -1.6160    -0.2390
H    -0.1220    -1.5460    -1.3630
C    -0.9550     0.3570    -0.9080
C    -0.6040     0.9970    -2.0440
H    -0.0210     0.6340    -2.8660
N    -1.1090     2.2760    -2.0570
H    -1.0640     2.9000    -2.8280
C    -1.8330     2.4760    -0.9130
C    -2.5440     3.5940    -0.4810
H    -2.5910     4.4900    -1.0760
C    -3.1890     3.5110     0.7310
H    -3.7480     4.3550     1.0920
C    -3.1350     2.3410     1.5050
H    -3.6570     2.3070     2.4440
C    -2.4310     1.2420     1.0720
H    -2.4110     0.3450     1.6670
C    -1.7600     1.2990    -0.1550
C     0.7720    -2.5360     1.0200
O    -0.0050    -3.4240     0.7970
N     1.9290    -2.7240     1.6850
H     2.5880    -1.9830     1.6800
C     2.3940    -4.0590     1.9950
H     1.6030    -4.6200     2.4700
H     3.2310    -3.9840     2.6780
H     2.7100    -4.5940     1.1060
}
set {
basis 6-31g*
}
E,wfn = prop('HF' , properties = ['GRID_ESP', 'GRID_FIELD'], return_wfn=True)
--------------------------------------------------------------------------

    Molecular point group: c1

    Geometry (in Angstrom), charge = 0, multiplicity = 1:

       Center              X                  Y                   Z               Mass
    ------------   -----------------  -----------------  -----------------  -----------------
         H            4.135000000000     0.586000000000    -1.424000000000     1.007825032070
         C            3.337000000000     0.866000000000    -0.751000000000    12.000000000000
         H            2.771000000000     1.680000000000    -1.194000000000     1.007825032070
         H            3.754000000000     1.217000000000     0.186000000000     1.007825032070
         C            2.425000000000    -0.324000000000    -0.545000000000    12.000000000000
         O            2.458000000000    -1.292000000000    -1.251000000000    15.994914619560
         N            1.576000000000    -0.223000000000     0.519000000000    14.003074004780
         H            1.475000000000     0.688000000000     0.908000000000     1.007825032070
         C            0.413000000000    -1.088000000000     0.669000000000    12.000000000000
         H           -0.097000000000    -0.714000000000     1.551000000000     1.007825032070
         C           -0.569000000000    -1.041000000000    -0.518000000000    12.000000000000
         H           -1.442000000000    -1.616000000000    -0.239000000000     1.007825032070
         H           -0.122000000000    -1.546000000000    -1.363000000000     1.007825032070
         C           -0.955000000000     0.357000000000    -0.908000000000    12.000000000000
         C           -0.604000000000     0.997000000000    -2.044000000000    12.000000000000
         H           -0.021000000000     0.634000000000    -2.866000000000     1.007825032070
         N           -1.109000000000     2.276000000000    -2.057000000000    14.003074004780
         H           -1.064000000000     2.900000000000    -2.828000000000     1.007825032070
         C           -1.833000000000     2.476000000000    -0.913000000000    12.000000000000
         C           -2.544000000000     3.594000000000    -0.481000000000    12.000000000000
         H           -2.591000000000     4.490000000000    -1.076000000000     1.007825032070
         C           -3.189000000000     3.511000000000     0.731000000000    12.000000000000
         H           -3.748000000000     4.355000000000     1.092000000000     1.007825032070
         C           -3.135000000000     2.341000000000     1.505000000000    12.000000000000
         H           -3.657000000000     2.307000000000     2.444000000000     1.007825032070
         C           -2.431000000000     1.242000000000     1.072000000000    12.000000000000
         H           -2.411000000000     0.345000000000     1.667000000000     1.007825032070
         C           -1.760000000000     1.299000000000    -0.155000000000    12.000000000000
         C            0.772000000000    -2.536000000000     1.020000000000    12.000000000000
         O           -0.005000000000    -3.424000000000     0.797000000000    15.994914619560
         N            1.929000000000    -2.724000000000     1.685000000000    14.003074004780
         H            2.588000000000    -1.983000000000     1.680000000000     1.007825032070
         C            2.394000000000    -4.059000000000     1.995000000000    12.000000000000
         H            1.603000000000    -4.620000000000     2.470000000000     1.007825032070
         H            3.231000000000    -3.984000000000     2.678000000000     1.007825032070
         H            2.710000000000    -4.594000000000     1.106000000000     1.007825032070

  Charge       = 0
  Multiplicity = 1
  Basis Set: 6-31G*
    Blend: 6-31G*
  Basis Set: (6-31G* AUX)
    Blend: CC-PVDZ-JKFIT

    Orbital Energies [Eh]
    ---------------------

    Doubly Occupied:

       1A    -20.535676     2A    -20.512409     3A    -15.604675
       4A    -15.592313     5A    -15.571290     6A    -11.356939
       7A    -11.335631     8A    -11.279116     9A    -11.265645
      10A    -11.263916    11A    -11.246622    12A    -11.240350
      13A    -11.232193    14A    -11.231768    15A    -11.229996
      16A    -11.224224    17A    -11.221543    18A    -11.220600
      19A    -11.219938    20A     -1.403739    21A     -1.381612
      22A     -1.302249    23A     -1.248354    24A     -1.217069
      25A     -1.136395    26A     -1.086302    27A     -1.041349
      28A     -1.004578    29A     -0.997527    30A     -0.979634
      31A     -0.948007    32A     -0.882535    33A     -0.845645
      34A     -0.811028    35A     -0.803355    36A     -0.775810
      37A     -0.754864    38A     -0.728504    39A     -0.713108
      40A     -0.697389    41A     -0.665794    42A     -0.655129
      43A     -0.647198    44A     -0.639332    45A     -0.622274
      46A     -0.613636    47A     -0.608684    48A     -0.600832
      49A     -0.594789    50A     -0.590979    51A     -0.581747
      52A     -0.573265    53A     -0.558602    54A     -0.556616
      55A     -0.543258    56A     -0.530441    57A     -0.526834
      58A     -0.520216    59A     -0.503481    60A     -0.496141
      61A     -0.474501    62A     -0.468492    63A     -0.430829
      64A     -0.420868    65A     -0.394417    66A     -0.378942
      67A     -0.374103    68A     -0.301703    69A     -0.284355

  @DF-RHF Final Energy:  -853.16697703744444

   => Energetics <=

    Nuclear Repulsion Energy =           1430.8127617669038045
    One-Electron Energy =               -4005.3566854504647381
    Two-Electron Energy =                1721.3769466461164939
    Total Energy =                       -853.1669770374444397

  Dipole Moment: [D]
     X:     2.4527      Y:     5.8363      Z:     0.6178     Total:     6.3608

*** Psi4 exiting successfully. Buy a developer a beer!
