                               Psi4 1.2.1 release

  ==> Input File <==

--------------------------------------------------------------------------
memory 12 gb
molecule meoh {
noreorient
nocom
0 1
H     1.1770     2.3160     1.4310
C     0.8730     1.3780     1.8870
H    -0.2100     1.3600     1.9180
H     1.2650     1.3390     2.8920
C     1.4490     0.2100     1.1130
O     2.3590    -0.4410     1.5490
N     0.8940    -0.0830    -0.0970
C     1.5400    -1.0880    -0.9470
H     1.5190    -2.0600    -0.4730
H     2.5800    -0.8250    -1.1000
C     0.7390    -1.0270    -2.2470
H    -0.1140    -1.6960    -2.2000
H     1.3340    -1.3110    -3.1070
C     0.2680     0.4280    -2.3010
H    -0.5820     0.5980    -2.9470
H     1.0780     1.0700    -2.6300
C    -0.0540     0.7470    -0.8300
H     0.0900     1.7990    -0.6280
C    -1.5330     0.4750    -0.5330
O    -2.3640     1.2120    -0.9940
N    -1.8200    -0.6050     0.2130
H    -1.0640    -1.1230     0.5960
C    -3.1740    -0.9620     0.5780
H    -3.2670    -2.0400     0.6110
H    -3.4490    -0.5570     1.5460
H    -3.8510    -0.5690    -0.1650
}
set {
basis 6-31g*
}
E,wfn = prop('HF' , properties = ['GRID_ESP', 'GRID_FIELD'], return_wfn=True)
--------------------------------------------------------------------------

    Molecular point group: c1

    Geometry (in Angstrom), charge = 0, multiplicity = 1:

       Center              X                  Y                   Z               Mass
    ------------   -----------------  -----------------  -----------------  -----------------
         H            1.177000000000     2.316000000000     1.431000000000     1.007825032070
         C            0.873000000000     1.378000000000     1.887000000000    12.000000000000
         H           -0.210000000000     1.360000000000     1.918000000000     1.007825032070
         H            1.265000000000     1.339000000000     2.892000000000     1.007825032070
         C            1.449000000000     0.210000000000     1.113000000000    12.000000000000
         O            2.359000000000    -0.441000000000     1.549000000000    15.994914619560
         N            0.894000000000    -0.083000000000    -0.097000000000    14.003074004780
         C            1.540000000000    -1.088000000000    -0.947000000000    12.000000000000
         H            1.519000000000    -2.060000000000    -0.473000000000     1.007825032070
         H            2.580000000000    -0.825000000000    -1.100000000000     1.007825032070
         C            0.739000000000    -1.027000000000    -2.247000000000    12.000000000000
         H           -0.114000000000    -1.696000000000    -2.200000000000     1.007825032070
         H            1.334000000000    -1.311000000000    -3.107000000000     1.007825032070
         C            0.268000000000     0.428000000000    -2.301000000000    12.000000000000
         H           -0.582000000000     0.598000000000    -2.947000000000     1.007825032070
         H            1.078000000000     1.070000000000    -2.630000000000     1.007825032070
         C           -0.054000000000     0.747000000000    -0.830000000000    12.000000000000
         H            0.090000000000     1.799000000000    -0.628000000000     1.007825032070
         C           -1.533000000000     0.475000000000    -0.533000000000    12.000000000000
         O           -2.364000000000     1.212000000000    -0.994000000000    15.994914619560
         N           -1.820000000000    -0.605000000000     0.213000000000    14.003074004780
         H           -1.064000000000    -1.123000000000     0.596000000000     1.007825032070
         C           -3.174000000000    -0.962000000000     0.578000000000    12.000000000000
         H           -3.267000000000    -2.040000000000     0.611000000000     1.007825032070
         H           -3.449000000000    -0.557000000000     1.546000000000     1.007825032070
         H           -3.851000000000    -0.569000000000    -0.165000000000     1.007825032070

  Charge       = 0
  Multiplicity = 1
  Basis Set: 6-31G*
    Blend: 6-31G*
  Basis Set: (6-31G* AUX)
    Blend: CC-PVDZ-JKFIT

    Orbital Energies [Eh]
    ---------------------

    Doubly Occupied:

       1A    -20.527444     2A    -20.523362     3A    -15.593054
       4A    -15.591863     5A    -11.351705     6A    -11.347541
       7A    -11.286266     8A    -11.265127     9A    -11.261716
      10A    -11.241091    11A    -11.237054    12A    -11.235826
      13A     -1.398595    14A     -1.392521    15A     -1.271786
      16A     -1.235115    17A     -1.084248    18A     -1.033383
      19A     -1.001723    20A     -0.960276    21A     -0.882139
      22A     -0.827485    23A     -0.797401    24A     -0.774407
      25A     -0.723673    26A     -0.688636    27A     -0.659550
      28A     -0.652150    29A     -0.634092    30A     -0.628070
      31A     -0.613048    32A     -0.598784    33A     -0.593357
      34A     -0.568998    35A     -0.562751    36A     -0.559334
      37A     -0.555348    38A     -0.538067    39A     -0.515327
      40A     -0.503944    41A     -0.492174    42A     -0.487590
      43A     -0.434742    44A     -0.420641    45A     -0.393288
      46A     -0.372958

  @DF-RHF Final Energy:  -569.75720035696236

   => Energetics <=

    Nuclear Repulsion Energy =            765.8058783584980347
    One-Electron Energy =               -2296.4906397492604810
    Two-Electron Energy =                 960.9275610338002025
    Total Energy =                       -569.7572003569623575

  Dipole Moment: [D]
     X:    -0.4661      Y:    -1.0800      Z:    -0.7147     Total:     1.3764

*** Psi4 exiting successfully. Buy a developer a beer!
