                               Psi4 1.2.1 release

  ==> Input File <==

--------------------------------------------------------------------------
memory 12 gb
molecule meoh {
noreorient
nocom
0 1
H     3.4360    -1.0620    -1.6110
C     3.2840    -0.7610    -0.5820
H     3.8930     0.1100    -0.3730
H     3.6060    -1.5790     0.0500
C     1.7980    -0.5520    -0.3640
O     1.0400    -1.4660    -0.5760
N     1.4550     0.6780     0.0600
H     2.2240     1.2970     0.1770
C     0.1990     1.3550     0.4020
H     0.1230     2.2310    -0.2300
H     0.2960     1.7180     1.4170
C    -1.2180     0.7660     0.3680
O    -2.0770     1.5450     0.7010
N    -1.4610    -0.4870     0.0030
H    -0.6980    -1.0740    -0.2630
C    -2.8150    -0.9960    -0.0130
H    -2.7850    -2.0280    -0.3360
H    -3.4360    -0.4290    -0.6950
H    -3.2610    -0.9470     0.9720
}
set {
basis 6-31g*
}
E,wfn = prop('HF' , properties = ['GRID_ESP', 'GRID_FIELD'], return_wfn=True)
--------------------------------------------------------------------------

    Molecular point group: c1

    Geometry (in Angstrom), charge = 0, multiplicity = 1:

       Center              X                  Y                   Z               Mass
    ------------   -----------------  -----------------  -----------------  -----------------
         H            3.436000000000    -1.062000000000    -1.611000000000     1.007825032070
         C            3.284000000000    -0.761000000000    -0.582000000000    12.000000000000
         H            3.893000000000     0.110000000000    -0.373000000000     1.007825032070
         H            3.606000000000    -1.579000000000     0.050000000000     1.007825032070
         C            1.798000000000    -0.552000000000    -0.364000000000    12.000000000000
         O            1.040000000000    -1.466000000000    -0.576000000000    15.994914619560
         N            1.455000000000     0.678000000000     0.060000000000    14.003074004780
         H            2.224000000000     1.297000000000     0.177000000000     1.007825032070
         C            0.199000000000     1.355000000000     0.402000000000    12.000000000000
         H            0.123000000000     2.231000000000    -0.230000000000     1.007825032070
         H            0.296000000000     1.718000000000     1.417000000000     1.007825032070
         C           -1.218000000000     0.766000000000     0.368000000000    12.000000000000
         O           -2.077000000000     1.545000000000     0.701000000000    15.994914619560
         N           -1.461000000000    -0.487000000000     0.003000000000    14.003074004780
         H           -0.698000000000    -1.074000000000    -0.263000000000     1.007825032070
         C           -2.815000000000    -0.996000000000    -0.013000000000    12.000000000000
         H           -2.785000000000    -2.028000000000    -0.336000000000     1.007825032070
         H           -3.436000000000    -0.429000000000    -0.695000000000     1.007825032070
         H           -3.261000000000    -0.947000000000     0.972000000000     1.007825032070

  Charge       = 0
  Multiplicity = 1
  Basis Set: 6-31G*
    Blend: 6-31G*
  Basis Set: (6-31G* AUX)
    Blend: CC-PVDZ-JKFIT

    Orbital Energies [Eh]
    ---------------------

    Doubly Occupied:

       1A    -20.540122     2A    -20.507380     3A    -15.611235
       4A    -15.564982     5A    -11.372368     6A    -11.343352
       7A    -11.286535     8A    -11.246282     9A    -11.244460
      10A     -1.409157    11A     -1.380312    12A     -1.256165
      13A     -1.219684    14A     -1.041241    15A     -0.983088
      16A     -0.934637    17A     -0.820898    18A     -0.775218
      19A     -0.715433    20A     -0.706804    21A     -0.665329
      22A     -0.642614    23A     -0.623503    24A     -0.620553
      25A     -0.601248    26A     -0.597429    27A     -0.569038
      28A     -0.557858    29A     -0.538601    30A     -0.535906
      31A     -0.505295    32A     -0.435700    33A     -0.411587
      34A     -0.407994    35A     -0.374088

  @DF-RHF Final Energy:  -453.80748407034150

   => Energetics <=

    Nuclear Repulsion Energy =            462.9434333042725029
    One-Electron Energy =               -1537.4095903918932891
    Two-Electron Energy =                 620.6586730172792841
    Total Energy =                       -453.8074840703415020

  Dipole Moment: [D]
     X:     4.7241      Y:     0.1251      Z:    -0.4376     Total:     4.7460

*** Psi4 exiting successfully. Buy a developer a beer!
