                               Psi4 1.2.1 release

  ==> Input File <==

--------------------------------------------------------------------------
memory 12 gb
molecule meoh {
noreorient
nocom
0 1
H    -0.1380     1.5750     1.5910
C     0.7440     1.1930     2.0840
H     0.4480     0.7160     3.0090
H     1.3930     2.0240     2.3350
C     1.5540     0.1890     1.2890
O     2.4930    -0.3580     1.8030
N     1.2230    -0.0550    -0.0030
C     1.9440    -1.0920    -0.7410
H     2.0470    -1.9780    -0.1330
H     2.9400    -0.7430    -0.9910
C     1.0860    -1.3150    -1.9860
H     0.3520    -2.0890    -1.7970
H     1.6740    -1.6080    -2.8470
C     0.3890     0.0330    -2.1810
H    -0.5080    -0.0230    -2.7850
H     1.0640     0.7440    -2.6460
C     0.1040     0.4920    -0.7370
H     0.0890     1.5750    -0.6790
C    -1.2430    -0.0590    -0.2550
O    -1.3430    -1.1140     0.3050
N    -2.3090     0.7150    -0.5510
H    -2.1670     1.6090    -0.9580
C    -3.6560     0.3160    -0.1970
H    -4.3520     1.0110    -0.6480
H    -3.8630    -0.6790    -0.5670
H    -3.8000     0.3180     0.8760
}
set {
basis 6-31g*
}
E,wfn = prop('HF' , properties = ['GRID_ESP', 'GRID_FIELD'], return_wfn=True)
--------------------------------------------------------------------------

    Molecular point group: c1

    Geometry (in Angstrom), charge = 0, multiplicity = 1:

       Center              X                  Y                   Z               Mass
    ------------   -----------------  -----------------  -----------------  -----------------
         H           -0.138000000000     1.575000000000     1.591000000000     1.007825032070
         C            0.744000000000     1.193000000000     2.084000000000    12.000000000000
         H            0.448000000000     0.716000000000     3.009000000000     1.007825032070
         H            1.393000000000     2.024000000000     2.335000000000     1.007825032070
         C            1.554000000000     0.189000000000     1.289000000000    12.000000000000
         O            2.493000000000    -0.358000000000     1.803000000000    15.994914619560
         N            1.223000000000    -0.055000000000    -0.003000000000    14.003074004780
         C            1.944000000000    -1.092000000000    -0.741000000000    12.000000000000
         H            2.047000000000    -1.978000000000    -0.133000000000     1.007825032070
         H            2.940000000000    -0.743000000000    -0.991000000000     1.007825032070
         C            1.086000000000    -1.315000000000    -1.986000000000    12.000000000000
         H            0.352000000000    -2.089000000000    -1.797000000000     1.007825032070
         H            1.674000000000    -1.608000000000    -2.847000000000     1.007825032070
         C            0.389000000000     0.033000000000    -2.181000000000    12.000000000000
         H           -0.508000000000    -0.023000000000    -2.785000000000     1.007825032070
         H            1.064000000000     0.744000000000    -2.646000000000     1.007825032070
         C            0.104000000000     0.492000000000    -0.737000000000    12.000000000000
         H            0.089000000000     1.575000000000    -0.679000000000     1.007825032070
         C           -1.243000000000    -0.059000000000    -0.255000000000    12.000000000000
         O           -1.343000000000    -1.114000000000     0.305000000000    15.994914619560
         N           -2.309000000000     0.715000000000    -0.551000000000    14.003074004780
         H           -2.167000000000     1.609000000000    -0.958000000000     1.007825032070
         C           -3.656000000000     0.316000000000    -0.197000000000    12.000000000000
         H           -4.352000000000     1.011000000000    -0.648000000000     1.007825032070
         H           -3.863000000000    -0.679000000000    -0.567000000000     1.007825032070
         H           -3.800000000000     0.318000000000     0.876000000000     1.007825032070

  Charge       = 0
  Multiplicity = 1
  Basis Set: 6-31G*
    Blend: 6-31G*
  Basis Set: (6-31G* AUX)
    Blend: CC-PVDZ-JKFIT

    Orbital Energies [Eh]
    ---------------------

    Doubly Occupied:

       1A    -20.531442     2A    -20.506694     3A    -15.596414
       4A    -15.578955     5A    -11.349764     6A    -11.336469
       7A    -11.287927     8A    -11.266314     9A    -11.249939
      10A    -11.244516    11A    -11.227248    12A    -11.224478
      13A     -1.401612    14A     -1.378242    15A     -1.257229
      16A     -1.242115    17A     -1.077714    18A     -1.030572
      19A     -0.990981    20A     -0.958706    21A     -0.876061
      22A     -0.824441    23A     -0.804474    24A     -0.762251
      25A     -0.720882    26A     -0.677735    27A     -0.656344
      28A     -0.650343    29A     -0.636052    30A     -0.620649
      31A     -0.605563    32A     -0.595174    33A     -0.583891
      34A     -0.571962    35A     -0.563131    36A     -0.559684
      37A     -0.541542    38A     -0.530409    39A     -0.508897
      40A     -0.495472    41A     -0.491395    42A     -0.479454
      43A     -0.425713    44A     -0.403876    45A     -0.398796
      46A     -0.363048

  @DF-RHF Final Energy:  -569.75187781242244

   => Energetics <=

    Nuclear Repulsion Energy =            764.4246658127378851
    One-Electron Energy =               -2294.1842477490454257
    Two-Electron Energy =                 960.0077041238851052
    Total Energy =                       -569.7518778124224355

  Dipole Moment: [D]
     X:    -3.5828      Y:     4.1834      Z:    -4.2154     Total:     6.9359

*** Psi4 exiting successfully. Buy a developer a beer!
