                               Psi4 1.2.1 release

  ==> Input File <==

--------------------------------------------------------------------------
memory 12 gb
molecule meoh {
noreorient
nocom
0 1
H     3.1100     0.5520     2.2130
C     2.7730    -0.0700     1.3980
H     2.6060    -1.0790     1.7600
H     3.5440    -0.1140     0.6370
C     1.4960     0.5250     0.8480
O     1.0330     1.5410     1.3140
N     0.9000    -0.1300    -0.1720
C     1.4550    -1.2900    -0.8730
H     1.5800    -2.1320    -0.2030
H     2.4250    -1.0500    -1.2980
C     0.4300    -1.5700    -1.9750
H    -0.3420    -2.2350    -1.6110
H     0.8900    -2.0220    -2.8460
C    -0.1740    -0.1940    -2.2570
H    -1.1390    -0.2490    -2.7380
H     0.4950     0.3930    -2.8800
C    -0.2550     0.4480    -0.8720
H    -0.1460     1.5230    -0.9030
C    -1.5670     0.1040    -0.1470
O    -2.3210    -0.7380    -0.5630
N    -1.8040     0.8240     0.9610
H    -1.0610     1.3900     1.3110
C    -2.9440     0.5470     1.8060
H    -2.8440    -0.4010     2.3250
H    -3.0320     1.3390     2.5370
H    -3.8460     0.5140     1.2120
}
set {
basis 6-31g*
}
E,wfn = prop('HF' , properties = ['GRID_ESP', 'GRID_FIELD'], return_wfn=True)
--------------------------------------------------------------------------

    Molecular point group: c1

    Geometry (in Angstrom), charge = 0, multiplicity = 1:

       Center              X                  Y                   Z               Mass
    ------------   -----------------  -----------------  -----------------  -----------------
         H            3.110000000000     0.552000000000     2.213000000000     1.007825032070
         C            2.773000000000    -0.070000000000     1.398000000000    12.000000000000
         H            2.606000000000    -1.079000000000     1.760000000000     1.007825032070
         H            3.544000000000    -0.114000000000     0.637000000000     1.007825032070
         C            1.496000000000     0.525000000000     0.848000000000    12.000000000000
         O            1.033000000000     1.541000000000     1.314000000000    15.994914619560
         N            0.900000000000    -0.130000000000    -0.172000000000    14.003074004780
         C            1.455000000000    -1.290000000000    -0.873000000000    12.000000000000
         H            1.580000000000    -2.132000000000    -0.203000000000     1.007825032070
         H            2.425000000000    -1.050000000000    -1.298000000000     1.007825032070
         C            0.430000000000    -1.570000000000    -1.975000000000    12.000000000000
         H           -0.342000000000    -2.235000000000    -1.611000000000     1.007825032070
         H            0.890000000000    -2.022000000000    -2.846000000000     1.007825032070
         C           -0.174000000000    -0.194000000000    -2.257000000000    12.000000000000
         H           -1.139000000000    -0.249000000000    -2.738000000000     1.007825032070
         H            0.495000000000     0.393000000000    -2.880000000000     1.007825032070
         C           -0.255000000000     0.448000000000    -0.872000000000    12.000000000000
         H           -0.146000000000     1.523000000000    -0.903000000000     1.007825032070
         C           -1.567000000000     0.104000000000    -0.147000000000    12.000000000000
         O           -2.321000000000    -0.738000000000    -0.563000000000    15.994914619560
         N           -1.804000000000     0.824000000000     0.961000000000    14.003074004780
         H           -1.061000000000     1.390000000000     1.311000000000     1.007825032070
         C           -2.944000000000     0.547000000000     1.806000000000    12.000000000000
         H           -2.844000000000    -0.401000000000     2.325000000000     1.007825032070
         H           -3.032000000000     1.339000000000     2.537000000000     1.007825032070
         H           -3.846000000000     0.514000000000     1.212000000000     1.007825032070

  Charge       = 0
  Multiplicity = 1
  Basis Set: 6-31G*
    Blend: 6-31G*
  Basis Set: (6-31G* AUX)
    Blend: CC-PVDZ-JKFIT

    Orbital Energies [Eh]
    ---------------------

    Doubly Occupied:

       1A    -20.531322     2A    -20.515391     3A    -15.595907
       4A    -15.567127     5A    -11.356603     6A    -11.333857
       7A    -11.274516     8A    -11.274057     9A    -11.246010
      10A    -11.237890    11A    -11.229496    12A    -11.227900
      13A     -1.399676    14A     -1.381239    15A     -1.267844
      16A     -1.219265    17A     -1.081838    18A     -1.030446
      19A     -0.998412    20A     -0.948042    21A     -0.879013
      22A     -0.821697    23A     -0.784360    24A     -0.757785
      25A     -0.719026    26A     -0.691962    27A     -0.654821
      28A     -0.643497    29A     -0.635902    30A     -0.616567
      31A     -0.610134    32A     -0.591007    33A     -0.588986
      34A     -0.569383    35A     -0.560196    36A     -0.548065
      37A     -0.540378    38A     -0.520737    39A     -0.515469
      40A     -0.499978    41A     -0.492144    42A     -0.487429
      43A     -0.427028    44A     -0.422877    45A     -0.377067
      46A     -0.369109

  @DF-RHF Final Energy:  -569.76218881635793

   => Energetics <=

    Nuclear Repulsion Energy =            767.3546975247112414
    One-Electron Energy =               -2300.1509850371680841
    Two-Electron Energy =                 963.0340986960987948
    Total Energy =                       -569.7621888163579342

  Dipole Moment: [D]
     X:     3.1803      Y:    -0.9113      Z:    -0.3393     Total:     3.3256

*** Psi4 exiting successfully. Buy a developer a beer!
