                               Psi4 1.2.1 release

  ==> Input File <==

--------------------------------------------------------------------------
memory 12 gb
molecule meoh {
noreorient
nocom
-1 1
H     2.9600    -1.6450    -1.9570
C     2.8490    -0.8890    -1.1920
H     3.1330     0.0780    -1.5970
H     3.5050    -1.1090    -0.3570
C     1.3990    -0.8270    -0.7550
O     0.5260    -1.3580    -1.3980
N     1.1930    -0.1550     0.3960
H     1.9070     0.5040     0.6320
C    -0.1100     0.3960     0.7560
H    -0.0250     0.6700     1.8000
C    -0.4040     1.6820    -0.0310
H    -0.4900     1.4450    -1.0900
H    -1.3710     2.0610     0.2900
S     0.9020     2.9440     0.2220
C    -1.1720    -0.7140     0.7580
O    -1.1630    -1.5750     1.5980
N    -2.1680    -0.6210    -0.1620
H    -1.9290    -0.1150    -0.9840
C    -3.0490    -1.7480    -0.3510
H    -3.8260    -1.4710    -1.0550
H    -2.5230    -2.6200    -0.7300
H    -3.5100    -2.0120     0.5900
}
set {
basis 6-31g*
}
E,wfn = prop('HF' , properties = ['GRID_ESP', 'GRID_FIELD'], return_wfn=True)
--------------------------------------------------------------------------

    Molecular point group: c1

    Geometry (in Angstrom), charge = -1, multiplicity = 1:

       Center              X                  Y                   Z               Mass
    ------------   -----------------  -----------------  -----------------  -----------------
         H            2.960000000000    -1.645000000000    -1.957000000000     1.007825032070
         C            2.849000000000    -0.889000000000    -1.192000000000    12.000000000000
         H            3.133000000000     0.078000000000    -1.597000000000     1.007825032070
         H            3.505000000000    -1.109000000000    -0.357000000000     1.007825032070
         C            1.399000000000    -0.827000000000    -0.755000000000    12.000000000000
         O            0.526000000000    -1.358000000000    -1.398000000000    15.994914619560
         N            1.193000000000    -0.155000000000     0.396000000000    14.003074004780
         H            1.907000000000     0.504000000000     0.632000000000     1.007825032070
         C           -0.110000000000     0.396000000000     0.756000000000    12.000000000000
         H           -0.025000000000     0.670000000000     1.800000000000     1.007825032070
         C           -0.404000000000     1.682000000000    -0.031000000000    12.000000000000
         H           -0.490000000000     1.445000000000    -1.090000000000     1.007825032070
         H           -1.371000000000     2.061000000000     0.290000000000     1.007825032070
         S            0.902000000000     2.944000000000     0.222000000000    31.972070999000
         C           -1.172000000000    -0.714000000000     0.758000000000    12.000000000000
         O           -1.163000000000    -1.575000000000     1.598000000000    15.994914619560
         N           -2.168000000000    -0.621000000000    -0.162000000000    14.003074004780
         H           -1.929000000000    -0.115000000000    -0.984000000000     1.007825032070
         C           -3.049000000000    -1.748000000000    -0.351000000000    12.000000000000
         H           -3.826000000000    -1.471000000000    -1.055000000000     1.007825032070
         H           -2.523000000000    -2.620000000000    -0.730000000000     1.007825032070
         H           -3.510000000000    -2.012000000000     0.590000000000     1.007825032070

  Charge       = -1
  Multiplicity = 1
  Basis Set: 6-31G*
    Blend: 6-31G*
  Basis Set: (6-31G* AUX)
    Blend: CC-PVDZ-JKFIT

    Orbital Energies [Eh]
    ---------------------

    Doubly Occupied:

       1A    -91.669741     2A    -20.405270     3A    -20.396660
       4A    -15.454373     5A    -15.445005     6A    -11.226823
       7A    -11.215412     8A    -11.145601     9A    -11.130545
      10A    -11.119652    11A    -11.080377    12A     -8.677074
      13A     -6.360889    14A     -6.357726    15A     -6.357532
      16A     -1.271469    17A     -1.260768    18A     -1.108276
      19A     -1.102979    20A     -0.918924    21A     -0.868606
      22A     -0.829759    23A     -0.756228    24A     -0.674760
      25A     -0.648225    26A     -0.599033    27A     -0.576250
      28A     -0.560551    29A     -0.525426    30A     -0.512002
      31A     -0.503595    32A     -0.498943    33A     -0.467334
      34A     -0.453353    35A     -0.447142    36A     -0.433253
      37A     -0.424104    38A     -0.401016    39A     -0.384453
      40A     -0.367003    41A     -0.307514    42A     -0.300283
      43A     -0.270416    44A     -0.259345    45A     -0.241720
      46A     -0.110948    47A     -0.106133

  @DF-RHF Final Energy:  -889.79974288293192

   => Energetics <=

    Nuclear Repulsion Energy =            731.9500515109895105
    One-Electron Energy =               -2691.0346509213172794
    Two-Electron Energy =                1069.2848565273959593
    Total Energy =                       -889.7997428829319233

  Dipole Moment: [D]
     X:    -1.5836      Y:    -7.1526      Z:    -2.3185     Total:     7.6839

*** Psi4 exiting successfully. Buy a developer a beer!
