                               Psi4 1.2.1 release

  ==> Input File <==

--------------------------------------------------------------------------
memory 12 gb
molecule meoh {
noreorient
nocom
0 1
H    -3.6490    -0.4540     1.4760
C    -2.7800     0.1850     1.5310
H    -2.4270     0.2320     2.5560
H    -3.0560     1.1840     1.2140
C    -1.7240    -0.3340     0.5820
O    -1.9940    -1.0170    -0.3660
N    -0.4450     0.0320     0.8850
H    -0.3360     0.7150     1.6020
C     0.6470    -0.0860    -0.0660
H     0.2180    -0.3950    -1.0050
C     1.3950     1.2480    -0.2290
H     1.8700     1.4790     0.7240
H     2.2010     1.0830    -0.9320
C     0.5640     2.4690    -0.6520
H    -0.2860     2.6030     0.0070
H     1.2050     3.3340    -0.4980
C     0.0770     2.5190    -2.1090
H    -0.1270     3.5600    -2.3520
H     0.8790     2.2100    -2.7760
C    -1.1780     1.7120    -2.4500
H    -1.3870     1.8520    -3.5120
H    -1.0130     0.6540    -2.3110
N    -2.3060     2.0880    -1.6050
H    -3.0640     1.4480    -1.7450
H    -2.6420     3.0010    -1.8520
C     1.6550    -1.1870     0.2780
O     2.6290    -1.3400    -0.4120
N     1.3990    -1.9420     1.3610
H     0.5110    -1.8470     1.7930
C     2.2240    -3.0850     1.6870
H     1.9620    -3.4310     2.6780
H     2.0860    -3.8970     0.9820
H     3.2660    -2.7990     1.6770
}
set {
basis 6-31g*
}
E,wfn = prop('HF' , properties = ['GRID_ESP', 'GRID_FIELD'], return_wfn=True)
--------------------------------------------------------------------------

    Molecular point group: c1

    Geometry (in Angstrom), charge = 0, multiplicity = 1:

       Center              X                  Y                   Z               Mass
    ------------   -----------------  -----------------  -----------------  -----------------
         H           -3.649000000000    -0.454000000000     1.476000000000     1.007825032070
         C           -2.780000000000     0.185000000000     1.531000000000    12.000000000000
         H           -2.427000000000     0.232000000000     2.556000000000     1.007825032070
         H           -3.056000000000     1.184000000000     1.214000000000     1.007825032070
         C           -1.724000000000    -0.334000000000     0.582000000000    12.000000000000
         O           -1.994000000000    -1.017000000000    -0.366000000000    15.994914619560
         N           -0.445000000000     0.032000000000     0.885000000000    14.003074004780
         H           -0.336000000000     0.715000000000     1.602000000000     1.007825032070
         C            0.647000000000    -0.086000000000    -0.066000000000    12.000000000000
         H            0.218000000000    -0.395000000000    -1.005000000000     1.007825032070
         C            1.395000000000     1.248000000000    -0.229000000000    12.000000000000
         H            1.870000000000     1.479000000000     0.724000000000     1.007825032070
         H            2.201000000000     1.083000000000    -0.932000000000     1.007825032070
         C            0.564000000000     2.469000000000    -0.652000000000    12.000000000000
         H           -0.286000000000     2.603000000000     0.007000000000     1.007825032070
         H            1.205000000000     3.334000000000    -0.498000000000     1.007825032070
         C            0.077000000000     2.519000000000    -2.109000000000    12.000000000000
         H           -0.127000000000     3.560000000000    -2.352000000000     1.007825032070
         H            0.879000000000     2.210000000000    -2.776000000000     1.007825032070
         C           -1.178000000000     1.712000000000    -2.450000000000    12.000000000000
         H           -1.387000000000     1.852000000000    -3.512000000000     1.007825032070
         H           -1.013000000000     0.654000000000    -2.311000000000     1.007825032070
         N           -2.306000000000     2.088000000000    -1.605000000000    14.003074004780
         H           -3.064000000000     1.448000000000    -1.745000000000     1.007825032070
         H           -2.642000000000     3.001000000000    -1.852000000000     1.007825032070
         C            1.655000000000    -1.187000000000     0.278000000000    12.000000000000
         O            2.629000000000    -1.340000000000    -0.412000000000    15.994914619560
         N            1.399000000000    -1.942000000000     1.361000000000    14.003074004780
         H            0.511000000000    -1.847000000000     1.793000000000     1.007825032070
         C            2.224000000000    -3.085000000000     1.687000000000    12.000000000000
         H            1.962000000000    -3.431000000000     2.678000000000     1.007825032070
         H            2.086000000000    -3.897000000000     0.982000000000     1.007825032070
         H            3.266000000000    -2.799000000000     1.677000000000     1.007825032070

  Charge       = 0
  Multiplicity = 1
  Basis Set: 6-31G*
    Blend: 6-31G*
  Basis Set: (6-31G* AUX)
    Blend: CC-PVDZ-JKFIT

    Orbital Energies [Eh]
    ---------------------

    Doubly Occupied:

       1A    -20.528399     2A    -20.511409     3A    -15.590081
       4A    -15.576613     5A    -15.539002     6A    -11.353737
       7A    -11.334062     8A    -11.270967     9A    -11.251317
      10A    -11.240093    11A    -11.233518    12A    -11.224816
      13A    -11.216914    14A    -11.216076    15A     -1.397213
      16A     -1.380970    17A     -1.247597    18A     -1.219443
      19A     -1.180647    20A     -1.076509    21A     -1.027807
      22A     -0.988378    23A     -0.959335    24A     -0.917074
      25A     -0.843746    26A     -0.800046    27A     -0.782656
      28A     -0.776928    29A     -0.718977    30A     -0.679878
      31A     -0.676878    32A     -0.665044    33A     -0.630623
      34A     -0.629401    35A     -0.617593    36A     -0.614929
      37A     -0.605351    38A     -0.595080    39A     -0.584843
      40A     -0.568984    41A     -0.562625    42A     -0.550566
      43A     -0.546940    44A     -0.535443    45A     -0.521435
      46A     -0.513266    47A     -0.496777    48A     -0.471929
      49A     -0.462915    50A     -0.459521    51A     -0.433319
      52A     -0.422361    53A     -0.386400    54A     -0.384335
      55A     -0.376099

  @DF-RHF Final Energy:  -664.97686034625247

   => Energetics <=

    Nuclear Repulsion Energy =            985.7029257112915275
    One-Electron Energy =               -2864.5657313842075382
    Two-Electron Energy =                1213.8859453266636592
    Total Energy =                       -664.9768603462523515

  Dipole Moment: [D]
     X:    -2.5111      Y:     2.6250      Z:     3.1963     Total:     4.8387

*** Psi4 exiting successfully. Buy a developer a beer!
