                               Psi4 1.2.1 release

  ==> Input File <==

--------------------------------------------------------------------------
memory 12 gb
molecule meoh {
noreorient
nocom
0 1
H     3.7580    -0.2260    -1.1680
C     3.0130    -0.9530    -0.8600
H     3.2460    -1.2690     0.1510
H     3.0620    -1.8010    -1.5270
C     1.6390    -0.3280    -0.9620
O     0.9290    -0.4890    -1.9160
N     1.2680     0.4330     0.1010
H     1.9090     0.5400     0.8530
C     0.0920     1.2730     0.0980
H    -0.2350     1.3980    -0.9250
H     0.3330     2.2500     0.4930
C    -1.1030     0.7630     0.8960
O    -1.9070     1.5460     1.3240
N    -1.2030    -0.5690     1.0580
H    -0.5930    -1.1490     0.5310
C    -2.3820    -1.1650     1.6500
H    -3.2370    -1.1200     0.9840
H    -2.6320    -0.6420     2.5610
H    -2.1700    -2.2000     1.8830
}
set {
basis 6-31g*
}
E,wfn = prop('HF' , properties = ['GRID_ESP', 'GRID_FIELD'], return_wfn=True)
--------------------------------------------------------------------------

    Molecular point group: c1

    Geometry (in Angstrom), charge = 0, multiplicity = 1:

       Center              X                  Y                   Z               Mass
    ------------   -----------------  -----------------  -----------------  -----------------
         H            3.758000000000    -0.226000000000    -1.168000000000     1.007825032070
         C            3.013000000000    -0.953000000000    -0.860000000000    12.000000000000
         H            3.246000000000    -1.269000000000     0.151000000000     1.007825032070
         H            3.062000000000    -1.801000000000    -1.527000000000     1.007825032070
         C            1.639000000000    -0.328000000000    -0.962000000000    12.000000000000
         O            0.929000000000    -0.489000000000    -1.916000000000    15.994914619560
         N            1.268000000000     0.433000000000     0.101000000000    14.003074004780
         H            1.909000000000     0.540000000000     0.853000000000     1.007825032070
         C            0.092000000000     1.273000000000     0.098000000000    12.000000000000
         H           -0.235000000000     1.398000000000    -0.925000000000     1.007825032070
         H            0.333000000000     2.250000000000     0.493000000000     1.007825032070
         C           -1.103000000000     0.763000000000     0.896000000000    12.000000000000
         O           -1.907000000000     1.546000000000     1.324000000000    15.994914619560
         N           -1.203000000000    -0.569000000000     1.058000000000    14.003074004780
         H           -0.593000000000    -1.149000000000     0.531000000000     1.007825032070
         C           -2.382000000000    -1.165000000000     1.650000000000    12.000000000000
         H           -3.237000000000    -1.120000000000     0.984000000000     1.007825032070
         H           -2.632000000000    -0.642000000000     2.561000000000     1.007825032070
         H           -2.170000000000    -2.200000000000     1.883000000000     1.007825032070

  Charge       = 0
  Multiplicity = 1
  Basis Set: 6-31G*
    Blend: 6-31G*
  Basis Set: (6-31G* AUX)
    Blend: CC-PVDZ-JKFIT

    Orbital Energies [Eh]
    ---------------------

    Doubly Occupied:

       1A    -20.536777     2A    -20.518831     3A    -15.601654
       4A    -15.581996     5A    -11.362875     6A    -11.341909
       7A    -11.275258     8A    -11.255077     9A    -11.244997
      10A     -1.406056    11A     -1.387923    12A     -1.253263
      13A     -1.226187    14A     -1.040433    15A     -0.983858
      16A     -0.933664    17A     -0.809450    18A     -0.788192
      19A     -0.729517    20A     -0.695725    21A     -0.674215
      22A     -0.637029    23A     -0.626229    24A     -0.623911
      25A     -0.597538    26A     -0.581774    27A     -0.577216
      28A     -0.568585    29A     -0.550571    30A     -0.530989
      31A     -0.508088    32A     -0.442440    33A     -0.431692
      34A     -0.396557    35A     -0.381896

  @DF-RHF Final Energy:  -453.82011102086176

   => Energetics <=

    Nuclear Repulsion Energy =            460.8433561588647080
    One-Electron Energy =               -1533.1219188518039118
    Two-Electron Energy =                 618.4584516720774445
    Total Energy =                       -453.8201110208617592

  Dipole Moment: [D]
     X:     4.0587      Y:    -2.1132      Z:     1.6321     Total:     4.8583

*** Psi4 exiting successfully. Buy a developer a beer!
