                               Psi4 1.2.1 release

  ==> Input File <==

--------------------------------------------------------------------------
memory 12 gb
molecule meoh {
noreorient
nocom
0 1
H     4.7400     2.3870     1.4530
C     4.4020     2.3170     0.4250
H     5.0810     1.6750    -0.1230
H     4.4220     3.3120     0.0010
C     2.9740     1.8170     0.4220
O     2.0590     2.5220     0.7670
N     2.7980     0.5390     0.0340
H     3.5670    -0.0290    -0.2440
C     1.4990    -0.0900     0.0340
H     0.9530     0.2660     0.8960
C     0.7060     0.2570    -1.2490
H     1.1940    -0.2160    -2.0950
H     0.7940     1.3280    -1.3850
C    -0.7450    -0.1260    -1.1990
C    -1.3680    -1.0850    -1.9160
H    -0.9650    -1.7470    -2.6550
N    -2.6990    -1.1480    -1.5810
H    -3.3730    -1.7300    -2.0190
C    -2.9640    -0.1950    -0.6330
C    -4.1590     0.1380     0.0040
H    -5.0750    -0.3810    -0.2160
C    -4.1220     1.1600     0.9240
H    -5.0260     1.4430     1.4340
C    -2.9300     1.8440     1.2110
H    -2.9420     2.6420     1.9320
C    -1.7540     1.5130     0.5800
H    -0.8460     2.0480     0.7960
C    -1.7630     0.4720    -0.3580
C     1.7290    -1.5940     0.1500
O     2.7180    -2.1050    -0.3120
N     0.7730    -2.2890     0.7880
H    -0.0730    -1.8200     1.0200
C     0.7980    -3.7340     0.8470
H     1.7850    -4.0700     1.1280
H     0.5400    -4.1830    -0.1070
H     0.0870    -4.0630     1.5930
}
set {
basis 6-31g*
}
E,wfn = prop('HF' , properties = ['GRID_ESP', 'GRID_FIELD'], return_wfn=True)
--------------------------------------------------------------------------

    Molecular point group: c1

    Geometry (in Angstrom), charge = 0, multiplicity = 1:

       Center              X                  Y                   Z               Mass
    ------------   -----------------  -----------------  -----------------  -----------------
         H            4.740000000000     2.387000000000     1.453000000000     1.007825032070
         C            4.402000000000     2.317000000000     0.425000000000    12.000000000000
         H            5.081000000000     1.675000000000    -0.123000000000     1.007825032070
         H            4.422000000000     3.312000000000     0.001000000000     1.007825032070
         C            2.974000000000     1.817000000000     0.422000000000    12.000000000000
         O            2.059000000000     2.522000000000     0.767000000000    15.994914619560
         N            2.798000000000     0.539000000000     0.034000000000    14.003074004780
         H            3.567000000000    -0.029000000000    -0.244000000000     1.007825032070
         C            1.499000000000    -0.090000000000     0.034000000000    12.000000000000
         H            0.953000000000     0.266000000000     0.896000000000     1.007825032070
         C            0.706000000000     0.257000000000    -1.249000000000    12.000000000000
         H            1.194000000000    -0.216000000000    -2.095000000000     1.007825032070
         H            0.794000000000     1.328000000000    -1.385000000000     1.007825032070
         C           -0.745000000000    -0.126000000000    -1.199000000000    12.000000000000
         C           -1.368000000000    -1.085000000000    -1.916000000000    12.000000000000
         H           -0.965000000000    -1.747000000000    -2.655000000000     1.007825032070
         N           -2.699000000000    -1.148000000000    -1.581000000000    14.003074004780
         H           -3.373000000000    -1.730000000000    -2.019000000000     1.007825032070
         C           -2.964000000000    -0.195000000000    -0.633000000000    12.000000000000
         C           -4.159000000000     0.138000000000     0.004000000000    12.000000000000
         H           -5.075000000000    -0.381000000000    -0.216000000000     1.007825032070
         C           -4.122000000000     1.160000000000     0.924000000000    12.000000000000
         H           -5.026000000000     1.443000000000     1.434000000000     1.007825032070
         C           -2.930000000000     1.844000000000     1.211000000000    12.000000000000
         H           -2.942000000000     2.642000000000     1.932000000000     1.007825032070
         C           -1.754000000000     1.513000000000     0.580000000000    12.000000000000
         H           -0.846000000000     2.048000000000     0.796000000000     1.007825032070
         C           -1.763000000000     0.472000000000    -0.358000000000    12.000000000000
         C            1.729000000000    -1.594000000000     0.150000000000    12.000000000000
         O            2.718000000000    -2.105000000000    -0.312000000000    15.994914619560
         N            0.773000000000    -2.289000000000     0.788000000000    14.003074004780
         H           -0.073000000000    -1.820000000000     1.020000000000     1.007825032070
         C            0.798000000000    -3.734000000000     0.847000000000    12.000000000000
         H            1.785000000000    -4.070000000000     1.128000000000     1.007825032070
         H            0.540000000000    -4.183000000000    -0.107000000000     1.007825032070
         H            0.087000000000    -4.063000000000     1.593000000000     1.007825032070

  Charge       = 0
  Multiplicity = 1
  Basis Set: 6-31G*
    Blend: 6-31G*
  Basis Set: (6-31G* AUX)
    Blend: CC-PVDZ-JKFIT

    Orbital Energies [Eh]
    ---------------------

    Doubly Occupied:

       1A    -20.528439     2A    -20.515357     3A    -15.605738
       4A    -15.588153     5A    -15.578247     6A    -11.348172
       7A    -11.343602     8A    -11.274776     9A    -11.267229
      10A    -11.264560    11A    -11.259558    12A    -11.232357
      13A    -11.229658    14A    -11.227648    15A    -11.227427
      16A    -11.225112    17A    -11.222821    18A    -11.221849
      19A    -11.216606    20A     -1.398446    21A     -1.382616
      22A     -1.302955    23A     -1.237526    24A     -1.233464
      25A     -1.133516    26A     -1.090209    27A     -1.037995
      28A     -1.000538    29A     -0.993476    30A     -0.979901
      31A     -0.953779    32A     -0.887322    33A     -0.843803
      34A     -0.808376    35A     -0.798613    36A     -0.785373
      37A     -0.763576    38A     -0.733141    39A     -0.721608
      40A     -0.669207    41A     -0.665183    42A     -0.656306
      43A     -0.649776    44A     -0.638265    45A     -0.631321
      46A     -0.615775    47A     -0.610845    48A     -0.597233
      49A     -0.591806    50A     -0.588023    51A     -0.580872
      52A     -0.567967    53A     -0.560909    54A     -0.557682
      55A     -0.553098    56A     -0.537427    57A     -0.529055
      58A     -0.519969    59A     -0.503527    60A     -0.491173
      61A     -0.473437    62A     -0.465608    63A     -0.425791
      64A     -0.412871    65A     -0.400051    66A     -0.384912
      67A     -0.370814    68A     -0.299981    69A     -0.282997

  @DF-RHF Final Energy:  -853.17446323215904

   => Energetics <=

    Nuclear Repulsion Energy =           1427.8446901280924521
    One-Electron Energy =               -3999.4467494068067026
    Two-Electron Energy =                1718.4275960465554363
    Total Energy =                       -853.1744632321590416

  Dipole Moment: [D]
     X:    -1.9721      Y:    -3.1975      Z:    -0.9615     Total:     3.8778

*** Psi4 exiting successfully. Buy a developer a beer!
