                               Psi4 1.2.1 release

  ==> Input File <==

--------------------------------------------------------------------------
memory 12 gb
molecule meoh {
noreorient
nocom
-1 1
H     3.9490    -1.2710    -0.4540
C     3.1430    -1.5740    -1.1140
H     2.8360    -2.5790    -0.8410
H     3.4930    -1.5810    -2.1370
C     1.9390    -0.6550    -1.0050
O     1.3110    -0.3400    -1.9770
N     1.6730    -0.2360     0.2590
H     2.1090    -0.7940     0.9590
C     0.3610     0.2660     0.6680
H     0.4440     0.4400     1.7360
C    -0.0060     1.6260     0.0410
H     0.9170     2.1910    -0.0080
H    -0.3330     1.4710    -0.9790
S    -1.2560     2.5690     1.0020
C    -0.6660    -0.8690     0.5140
O    -0.3090    -2.0260     0.4290
N    -1.9510    -0.5100     0.5380
H    -2.1620     0.4630     0.6920
C    -3.0020    -1.4890     0.4810
H    -2.9830    -2.1550     1.3390
H    -3.9530    -0.9700     0.4650
H    -2.9220    -2.0980    -0.4130
}
set {
basis 6-31g*
}
E,wfn = prop('HF' , properties = ['GRID_ESP', 'GRID_FIELD'], return_wfn=True)
--------------------------------------------------------------------------

    Molecular point group: c1

    Geometry (in Angstrom), charge = -1, multiplicity = 1:

       Center              X                  Y                   Z               Mass
    ------------   -----------------  -----------------  -----------------  -----------------
         H            3.949000000000    -1.271000000000    -0.454000000000     1.007825032070
         C            3.143000000000    -1.574000000000    -1.114000000000    12.000000000000
         H            2.836000000000    -2.579000000000    -0.841000000000     1.007825032070
         H            3.493000000000    -1.581000000000    -2.137000000000     1.007825032070
         C            1.939000000000    -0.655000000000    -1.005000000000    12.000000000000
         O            1.311000000000    -0.340000000000    -1.977000000000    15.994914619560
         N            1.673000000000    -0.236000000000     0.259000000000    14.003074004780
         H            2.109000000000    -0.794000000000     0.959000000000     1.007825032070
         C            0.361000000000     0.266000000000     0.668000000000    12.000000000000
         H            0.444000000000     0.440000000000     1.736000000000     1.007825032070
         C           -0.006000000000     1.626000000000     0.041000000000    12.000000000000
         H            0.917000000000     2.191000000000    -0.008000000000     1.007825032070
         H           -0.333000000000     1.471000000000    -0.979000000000     1.007825032070
         S           -1.256000000000     2.569000000000     1.002000000000    31.972070999000
         C           -0.666000000000    -0.869000000000     0.514000000000    12.000000000000
         O           -0.309000000000    -2.026000000000     0.429000000000    15.994914619560
         N           -1.951000000000    -0.510000000000     0.538000000000    14.003074004780
         H           -2.162000000000     0.463000000000     0.692000000000     1.007825032070
         C           -3.002000000000    -1.489000000000     0.481000000000    12.000000000000
         H           -2.983000000000    -2.155000000000     1.339000000000     1.007825032070
         H           -3.953000000000    -0.970000000000     0.465000000000     1.007825032070
         H           -2.922000000000    -2.098000000000    -0.413000000000     1.007825032070

  Charge       = -1
  Multiplicity = 1
  Basis Set: 6-31G*
    Blend: 6-31G*
  Basis Set: (6-31G* AUX)
    Blend: CC-PVDZ-JKFIT

    Orbital Energies [Eh]
    ---------------------

    Doubly Occupied:

       1A    -91.667278     2A    -20.404713     3A    -20.384521
       4A    -15.453623     5A    -15.434015     6A    -11.228434
       7A    -11.202934     8A    -11.136356     9A    -11.131230
      10A    -11.127381    11A    -11.071416    12A     -8.675514
      13A     -6.359245    14A     -6.356249    15A     -6.355993
      16A     -1.271453    17A     -1.248225    18A     -1.107611
      19A     -1.091546    20A     -0.919361    21A     -0.871209
      22A     -0.821351    23A     -0.753055    24A     -0.664824
      25A     -0.631787    26A     -0.617893    27A     -0.570487
      28A     -0.560648    29A     -0.523827    30A     -0.506237
      31A     -0.503134    32A     -0.493770    33A     -0.468993
      34A     -0.458652    35A     -0.441332    36A     -0.424951
      37A     -0.409489    38A     -0.401586    39A     -0.384296
      40A     -0.352073    41A     -0.299998    42A     -0.290655
      43A     -0.270913    44A     -0.249274    45A     -0.240917
      46A     -0.111001    47A     -0.106957

  @DF-RHF Final Energy:  -889.80285913241710

   => Energetics <=

    Nuclear Repulsion Energy =            728.4770722228147406
    One-Electron Energy =               -2684.4469458725993718
    Two-Electron Energy =                1066.1670145173675337
    Total Energy =                       -889.8028591324170975

  Dipole Moment: [D]
     X:     4.3524      Y:    -7.5189      Z:    -0.5628     Total:     8.7060

*** Psi4 exiting successfully. Buy a developer a beer!
