                               Psi4 1.2.1 release

  ==> Input File <==

--------------------------------------------------------------------------
memory 12 gb
molecule meoh {
noreorient
nocom
0 1
H    -2.7970    -0.9220     3.1760
C    -2.7940     0.1320     2.9140
H    -2.8190     0.7180     3.8210
H    -3.6770     0.3400     2.3180
C    -1.5170     0.4380     2.1620
O    -0.5780     0.9540     2.6940
N    -1.5500     0.0960     0.8340
H    -2.2960    -0.5220     0.6040
C    -0.3470    -0.1480     0.0600
H    -0.6930    -0.4480    -0.9240
C     0.5300     1.1050    -0.1120
H     0.6750     1.5540     0.8580
H     1.5040     0.8080    -0.4710
C    -0.0630     2.1440    -1.0690
H    -1.0570     2.4220    -0.7280
H     0.5430     3.0440    -0.9950
C    -0.1470     1.7500    -2.5520
H    -0.8710     0.9520    -2.7020
H    -0.5430     2.6050    -3.0930
C     1.1780     1.3460    -3.2090
H     1.1310     1.5750    -4.2730
H     1.9880     1.9410    -2.7990
N     1.5040    -0.0660    -2.9820
H     0.8440    -0.6450    -3.4690
H     2.4010    -0.2740    -3.3800
C     0.3980    -1.3820     0.5970
O    -0.0170    -2.0210     1.5270
N     1.4980    -1.7270    -0.0980
H     1.6960    -1.2420    -0.9470
C     2.2310    -2.9330     0.2140
H     1.6740    -3.8270    -0.0470
H     3.1620    -2.9260    -0.3380
H     2.4520    -2.9700     1.2710
}
set {
basis 6-31g*
}
E,wfn = prop('HF' , properties = ['GRID_ESP', 'GRID_FIELD'], return_wfn=True)
--------------------------------------------------------------------------

    Molecular point group: c1

    Geometry (in Angstrom), charge = 0, multiplicity = 1:

       Center              X                  Y                   Z               Mass
    ------------   -----------------  -----------------  -----------------  -----------------
         H           -2.797000000000    -0.922000000000     3.176000000000     1.007825032070
         C           -2.794000000000     0.132000000000     2.914000000000    12.000000000000
         H           -2.819000000000     0.718000000000     3.821000000000     1.007825032070
         H           -3.677000000000     0.340000000000     2.318000000000     1.007825032070
         C           -1.517000000000     0.438000000000     2.162000000000    12.000000000000
         O           -0.578000000000     0.954000000000     2.694000000000    15.994914619560
         N           -1.550000000000     0.096000000000     0.834000000000    14.003074004780
         H           -2.296000000000    -0.522000000000     0.604000000000     1.007825032070
         C           -0.347000000000    -0.148000000000     0.060000000000    12.000000000000
         H           -0.693000000000    -0.448000000000    -0.924000000000     1.007825032070
         C            0.530000000000     1.105000000000    -0.112000000000    12.000000000000
         H            0.675000000000     1.554000000000     0.858000000000     1.007825032070
         H            1.504000000000     0.808000000000    -0.471000000000     1.007825032070
         C           -0.063000000000     2.144000000000    -1.069000000000    12.000000000000
         H           -1.057000000000     2.422000000000    -0.728000000000     1.007825032070
         H            0.543000000000     3.044000000000    -0.995000000000     1.007825032070
         C           -0.147000000000     1.750000000000    -2.552000000000    12.000000000000
         H           -0.871000000000     0.952000000000    -2.702000000000     1.007825032070
         H           -0.543000000000     2.605000000000    -3.093000000000     1.007825032070
         C            1.178000000000     1.346000000000    -3.209000000000    12.000000000000
         H            1.131000000000     1.575000000000    -4.273000000000     1.007825032070
         H            1.988000000000     1.941000000000    -2.799000000000     1.007825032070
         N            1.504000000000    -0.066000000000    -2.982000000000    14.003074004780
         H            0.844000000000    -0.645000000000    -3.469000000000     1.007825032070
         H            2.401000000000    -0.274000000000    -3.380000000000     1.007825032070
         C            0.398000000000    -1.382000000000     0.597000000000    12.000000000000
         O           -0.017000000000    -2.021000000000     1.527000000000    15.994914619560
         N            1.498000000000    -1.727000000000    -0.098000000000    14.003074004780
         H            1.696000000000    -1.242000000000    -0.947000000000     1.007825032070
         C            2.231000000000    -2.933000000000     0.214000000000    12.000000000000
         H            1.674000000000    -3.827000000000    -0.047000000000     1.007825032070
         H            3.162000000000    -2.926000000000    -0.338000000000     1.007825032070
         H            2.452000000000    -2.970000000000     1.271000000000     1.007825032070

  Charge       = 0
  Multiplicity = 1
  Basis Set: 6-31G*
    Blend: 6-31G*
  Basis Set: (6-31G* AUX)
    Blend: CC-PVDZ-JKFIT

    Orbital Energies [Eh]
    ---------------------

    Doubly Occupied:

       1A    -20.510933     2A    -20.510225     3A    -15.569432
       4A    -15.565710     5A    -15.565096     6A    -11.334250
       7A    -11.328802     8A    -11.268104     9A    -11.260823
      10A    -11.247051    11A    -11.226479    12A    -11.217021
      13A    -11.216651    14A    -11.208723    15A     -1.383847
      16A     -1.372742    17A     -1.224481    18A     -1.217755
      19A     -1.202364    20A     -1.076268    21A     -1.023935
      22A     -0.979266    23A     -0.954179    24A     -0.908190
      25A     -0.857358    26A     -0.790840    27A     -0.781876
      28A     -0.748511    29A     -0.709080    30A     -0.689796
      31A     -0.679247    32A     -0.652134    33A     -0.641413
      34A     -0.623938    35A     -0.617140    36A     -0.610691
      37A     -0.605445    38A     -0.584186    39A     -0.576238
      40A     -0.558032    41A     -0.555480    42A     -0.545663
      43A     -0.542623    44A     -0.537935    45A     -0.518040
      46A     -0.503068    47A     -0.499062    48A     -0.480130
      49A     -0.472815    50A     -0.459076    51A     -0.416456
      52A     -0.407187    53A     -0.398257    54A     -0.378470
      55A     -0.370591

  @DF-RHF Final Energy:  -664.97382310353851

   => Energetics <=

    Nuclear Repulsion Energy =            982.2299790581359957
    One-Electron Energy =               -2858.0411931060893949
    Two-Electron Energy =                1210.8373909444148921
    Total Energy =                       -664.9738231035385070

  Dipole Moment: [D]
     X:    -0.1571      Y:    -0.3456      Z:    -6.9013     Total:     6.9117

*** Psi4 exiting successfully. Buy a developer a beer!
