                               Psi4 1.2.1 release

  ==> Input File <==

--------------------------------------------------------------------------
memory 12 gb
molecule meoh {
noreorient
nocom
0 1
H     5.1350     2.4590    -1.0030
C     4.5790     2.4450    -0.0770
H     4.4280     3.4580     0.2780
H     5.1530     1.9020     0.6680
C     3.2700     1.7240    -0.2950
O     3.0860     0.9930    -1.2270
N     2.3080     1.9800     0.6450
H     2.6690     2.3250     1.5060
C     1.1870     1.0720     0.8120
H     0.6340     1.4520     1.6640
C     0.2420     1.1000    -0.4090
H     0.6660     0.5070    -1.2050
H     0.2390     2.1230    -0.7680
C    -1.1760     0.6580    -0.1330
C    -2.0490     1.1870     0.7540
H    -1.9170     2.0040     1.4360
N    -3.2520     0.5310     0.6990
H    -4.0480     0.7450     1.2530
C    -3.1800    -0.4530    -0.2480
C    -4.1390    -1.3770    -0.6650
H    -5.1230    -1.3960    -0.2310
C    -3.7790    -2.2610    -1.6530
H    -4.4940    -2.9870    -1.9990
C    -2.4950    -2.2370    -2.2230
H    -2.2500    -2.9420    -2.9970
C    -1.5560    -1.3230    -1.8090
H    -0.5780    -1.3090    -2.2560
C    -1.8940    -0.4090    -0.8010
C     1.7170    -0.3040     1.2650
O     2.7910    -0.3820     1.8040
N     0.9190    -1.3690     1.0990
H     0.0300    -1.2630     0.6710
C     1.3240    -2.6840     1.5470
H     1.4420    -2.7130     2.6230
H     2.2650    -2.9690     1.0950
H     0.5620    -3.3940     1.2550
}
set {
basis 6-31g*
}
E,wfn = prop('HF' , properties = ['GRID_ESP', 'GRID_FIELD'], return_wfn=True)
--------------------------------------------------------------------------

    Molecular point group: c1

    Geometry (in Angstrom), charge = 0, multiplicity = 1:

       Center              X                  Y                   Z               Mass
    ------------   -----------------  -----------------  -----------------  -----------------
         H            5.135000000000     2.459000000000    -1.003000000000     1.007825032070
         C            4.579000000000     2.445000000000    -0.077000000000    12.000000000000
         H            4.428000000000     3.458000000000     0.278000000000     1.007825032070
         H            5.153000000000     1.902000000000     0.668000000000     1.007825032070
         C            3.270000000000     1.724000000000    -0.295000000000    12.000000000000
         O            3.086000000000     0.993000000000    -1.227000000000    15.994914619560
         N            2.308000000000     1.980000000000     0.645000000000    14.003074004780
         H            2.669000000000     2.325000000000     1.506000000000     1.007825032070
         C            1.187000000000     1.072000000000     0.812000000000    12.000000000000
         H            0.634000000000     1.452000000000     1.664000000000     1.007825032070
         C            0.242000000000     1.100000000000    -0.409000000000    12.000000000000
         H            0.666000000000     0.507000000000    -1.205000000000     1.007825032070
         H            0.239000000000     2.123000000000    -0.768000000000     1.007825032070
         C           -1.176000000000     0.658000000000    -0.133000000000    12.000000000000
         C           -2.049000000000     1.187000000000     0.754000000000    12.000000000000
         H           -1.917000000000     2.004000000000     1.436000000000     1.007825032070
         N           -3.252000000000     0.531000000000     0.699000000000    14.003074004780
         H           -4.048000000000     0.745000000000     1.253000000000     1.007825032070
         C           -3.180000000000    -0.453000000000    -0.248000000000    12.000000000000
         C           -4.139000000000    -1.377000000000    -0.665000000000    12.000000000000
         H           -5.123000000000    -1.396000000000    -0.231000000000     1.007825032070
         C           -3.779000000000    -2.261000000000    -1.653000000000    12.000000000000
         H           -4.494000000000    -2.987000000000    -1.999000000000     1.007825032070
         C           -2.495000000000    -2.237000000000    -2.223000000000    12.000000000000
         H           -2.250000000000    -2.942000000000    -2.997000000000     1.007825032070
         C           -1.556000000000    -1.323000000000    -1.809000000000    12.000000000000
         H           -0.578000000000    -1.309000000000    -2.256000000000     1.007825032070
         C           -1.894000000000    -0.409000000000    -0.801000000000    12.000000000000
         C            1.717000000000    -0.304000000000     1.265000000000    12.000000000000
         O            2.791000000000    -0.382000000000     1.804000000000    15.994914619560
         N            0.919000000000    -1.369000000000     1.099000000000    14.003074004780
         H            0.030000000000    -1.263000000000     0.671000000000     1.007825032070
         C            1.324000000000    -2.684000000000     1.547000000000    12.000000000000
         H            1.442000000000    -2.713000000000     2.623000000000     1.007825032070
         H            2.265000000000    -2.969000000000     1.095000000000     1.007825032070
         H            0.562000000000    -3.394000000000     1.255000000000     1.007825032070

  Charge       = 0
  Multiplicity = 1
  Basis Set: 6-31G*
    Blend: 6-31G*
  Basis Set: (6-31G* AUX)
    Blend: CC-PVDZ-JKFIT

    Orbital Energies [Eh]
    ---------------------

    Doubly Occupied:

       1A    -20.520049     2A    -20.512303     3A    -15.611841
       4A    -15.574121     5A    -15.573818     6A    -11.340569
       7A    -11.335481     8A    -11.277969     9A    -11.271902
      10A    -11.269665    11A    -11.247964    12A    -11.235154
      13A    -11.233771    14A    -11.232725    15A    -11.229408
      16A    -11.228961    17A    -11.227399    18A    -11.223724
      19A    -11.222482    20A     -1.391160    21A     -1.378362
      22A     -1.309429    23A     -1.229881    24A     -1.223299
      25A     -1.139884    26A     -1.091241    27A     -1.037312
      28A     -1.006062    29A     -0.994928    30A     -0.974857
      31A     -0.944396    32A     -0.888762    33A     -0.850264
      34A     -0.813278    35A     -0.791798    36A     -0.774537
      37A     -0.761128    38A     -0.737200    39A     -0.703476
      40A     -0.695140    41A     -0.667040    42A     -0.655927
      43A     -0.647063    44A     -0.628464    45A     -0.615736
      46A     -0.611462    47A     -0.607542    48A     -0.602793
      49A     -0.595672    50A     -0.585057    51A     -0.583378
      52A     -0.567009    53A     -0.554269    54A     -0.552689
      55A     -0.545191    56A     -0.536210    57A     -0.527501
      58A     -0.509517    59A     -0.502666    60A     -0.492676
      61A     -0.479316    62A     -0.471962    63A     -0.417174
      64A     -0.411122    65A     -0.393310    66A     -0.379767
      67A     -0.378342    68A     -0.305661    69A     -0.287647

  @DF-RHF Final Energy:  -853.16211474973193

   => Energetics <=

    Nuclear Repulsion Energy =           1429.2965488654615456
    One-Electron Energy =               -4002.4815016961515539
    Two-Electron Energy =                1720.0228380809583086
    Total Energy =                       -853.1621147497319271

  Dipole Moment: [D]
     X:    -4.5106      Y:     1.6155      Z:     2.7361     Total:     5.5174

*** Psi4 exiting successfully. Buy a developer a beer!
